<?xml version="1.0" encoding="UTF-8"?>

<!-- generated on 11/03/21 10:29:45 by Eclipse SUMO GUI Version 1.8.0
<configuration xmlns:xsi="http://www.w3.org/2001/XMLSchema-instance" xsi:noNamespaceSchemaLocation="http://sumo.dlr.de/xsd/sumoConfiguration.xsd">

    <input>
        <net-file value="F:\sumo_pro/traci_main\main\zhangshijie.net.xml"/>
        <route-files value="F:\sumo_pro/traci_main\main\routes1.rou.xml"/>
    </input>

    <output>
        <tripinfo-output value="F:\sumo_pro/traci_main/main/tripinfo2_TEST.xml"/>
    </output>

    <time>
        <begin value="0"/>
        <end value="20000"/>
    </time>

    <report>
        <verbose value="true"/>
        <duration-log.statistics value="true"/>
    </report>

    <traci_server>
        <remote-port value="65375"/>
    </traci_server>

    <gui_only>
        <gui-settings-file value="F:\sumo_pro/traci_main\main\gui-settings2.cfg"/>
        <quit-on-end value="true"/>
        <start value="true"/>
    </gui_only>

</configuration>
-->

<tripinfos xmlns:xsi="http://www.w3.org/2001/XMLSchema-instance" xsi:noNamespaceSchemaLocation="http://sumo.dlr.de/xsd/tripinfo_file.xsd">
    <tripinfo id="xiaokeche.0" depart="0.00" departLane="H_0" departPos="4.10" departSpeed="0.00" departDelay="0.00" arrival="10.00" arrivalLane="H_0" arrivalPos="100.00" arrivalSpeed="19.41" duration="10.00" routeLength="95.90" waitingTime="0.00" waitingCount="0" stopTime="0.00" timeLoss="4.68" rerouteNo="0" devices="tripinfo_xiaokeche.0" vType="xiaokeche" speedFactor="1.03" vaporized=""/>
    <tripinfo id="dakeche.0" depart="0.00" departLane="H_4" departPos="11.10" departSpeed="0.00" departDelay="0.00" arrival="14.00" arrivalLane="H_4" arrivalPos="100.00" arrivalSpeed="13.35" duration="14.00" routeLength="88.90" waitingTime="0.00" waitingCount="0" stopTime="0.00" timeLoss="9.04" rerouteNo="0" devices="tripinfo_dakeche.0" vType="dakeche" speedFactor="0.97" vaporized=""/>
    <tripinfo id="xiaoxinghuoche.0" depart="0.00" departLane="H_3" departPos="6.10" departSpeed="0.00" departDelay="0.00" arrival="14.00" arrivalLane="H_3" arrivalPos="100.00" arrivalSpeed="13.53" duration="14.00" routeLength="93.90" waitingTime="0.00" waitingCount="0" stopTime="0.00" timeLoss="8.89" rerouteNo="0" devices="tripinfo_xiaoxinghuoche.0" vType="xiaoxinghuoche" speedFactor="1.01" vaporized=""/>
    <tripinfo id="zhongxinghuoche.0" depart="0.00" departLane="H_2" departPos="9.70" departSpeed="0.00" departDelay="0.00" arrival="14.00" arrivalLane="H_2" arrivalPos="100.00" arrivalSpeed="12.40" duration="14.00" routeLength="90.30" waitingTime="0.00" waitingCount="0" stopTime="0.00" timeLoss="9.22" rerouteNo="0" devices="tripinfo_zhongxinghuoche.0" vType="zhongxinghuoche" speedFactor="1.04" vaporized=""/>
    <tripinfo id="daxinghuoche.0" depart="0.00" departLane="H_1" departPos="13.10" departSpeed="0.00" departDelay="0.00" arrival="14.00" arrivalLane="H_1" arrivalPos="100.00" arrivalSpeed="12.60" duration="14.00" routeLength="86.90" waitingTime="0.00" waitingCount="0" stopTime="0.00" timeLoss="9.14" rerouteNo="0" devices="tripinfo_daxinghuoche.0" vType="daxinghuoche" speedFactor="1.02" vaporized=""/>
    <tripinfo id="xiaoxinghuoche.1" depart="4.00" departLane="H_3" departPos="6.10" departSpeed="0.00" departDelay="3.10" arrival="18.00" arrivalLane="H_3" arrivalPos="100.00" arrivalSpeed="12.83" duration="14.00" routeLength="93.90" waitingTime="0.00" waitingCount="0" stopTime="0.00" timeLoss="9.18" rerouteNo="0" devices="tripinfo_xiaoxinghuoche.1" vType="xiaoxinghuoche" speedFactor="0.97" vaporized=""/>
    <tripinfo id="daxinghuoche.1" depart="5.00" departLane="H_1" departPos="13.10" departSpeed="0.00" departDelay="4.10" arrival="18.00" arrivalLane="H_1" arrivalPos="100.00" arrivalSpeed="13.27" duration="13.00" routeLength="86.90" waitingTime="0.00" waitingCount="0" stopTime="0.00" timeLoss="8.35" rerouteNo="0" devices="tripinfo_daxinghuoche.1" vType="daxinghuoche" speedFactor="1.05" vaporized=""/>
    <tripinfo id="tedaxinghuoche.0" depart="5.00" departLane="H_0" departPos="16.10" departSpeed="0.00" departDelay="5.00" arrival="19.00" arrivalLane="H_0" arrivalPos="100.00" arrivalSpeed="12.50" duration="14.00" routeLength="83.90" waitingTime="0.00" waitingCount="0" stopTime="0.00" timeLoss="9.35" rerouteNo="0" devices="tripinfo_tedaxinghuoche.0" vType="tedaxinghuoche" speedFactor="0.92" vaporized=""/>
    <tripinfo id="dakeche.1" depart="5.00" departLane="H_4" departPos="11.10" departSpeed="0.00" departDelay="4.10" arrival="19.00" arrivalLane="H_4" arrivalPos="100.00" arrivalSpeed="12.35" duration="14.00" routeLength="88.90" waitingTime="0.00" waitingCount="0" stopTime="0.00" timeLoss="9.55" rerouteNo="0" devices="tripinfo_dakeche.1" vType="dakeche" speedFactor="0.94" vaporized=""/>
    <tripinfo id="zhongxinghuoche.1" depart="5.00" departLane="H_2" departPos="9.70" departSpeed="0.00" departDelay="4.00" arrival="19.00" arrivalLane="H_2" arrivalPos="100.00" arrivalSpeed="13.90" duration="14.00" routeLength="90.30" waitingTime="0.00" waitingCount="0" stopTime="0.00" timeLoss="8.91" rerouteNo="0" devices="tripinfo_zhongxinghuoche.1" vType="zhongxinghuoche" speedFactor="0.93" vaporized=""/>
    <tripinfo id="xiaokeche.1" depart="9.00" departLane="H_0" departPos="4.10" departSpeed="0.00" departDelay="8.00" arrival="21.00" arrivalLane="H_0" arrivalPos="100.00" arrivalSpeed="16.51" duration="12.00" routeLength="95.90" waitingTime="0.00" waitingCount="0" stopTime="0.00" timeLoss="6.87" rerouteNo="0" devices="tripinfo_xiaokeche.1" vType="xiaokeche" speedFactor="1.02" vaporized=""/>
    <tripinfo id="xiaoxinghuoche.2" depart="8.00" departLane="H_3" departPos="6.10" departSpeed="0.00" departDelay="6.20" arrival="22.00" arrivalLane="H_3" arrivalPos="100.00" arrivalSpeed="12.65" duration="14.00" routeLength="93.90" waitingTime="0.00" waitingCount="0" stopTime="0.00" timeLoss="9.29" rerouteNo="0" devices="tripinfo_xiaoxinghuoche.2" vType="xiaoxinghuoche" speedFactor="1.00" vaporized=""/>
    <tripinfo id="zhongxinghuoche.2" depart="10.00" departLane="H_2" departPos="9.70" departSpeed="0.00" departDelay="8.00" arrival="23.00" arrivalLane="H_2" arrivalPos="100.00" arrivalSpeed="13.52" duration="13.00" routeLength="90.30" waitingTime="0.00" waitingCount="0" stopTime="0.00" timeLoss="8.15" rerouteNo="0" devices="tripinfo_zhongxinghuoche.2" vType="zhongxinghuoche" speedFactor="0.96" vaporized=""/>
    <tripinfo id="dakeche.2" depart="11.00" departLane="H_4" departPos="11.10" departSpeed="0.00" departDelay="9.20" arrival="24.00" arrivalLane="H_4" arrivalPos="100.00" arrivalSpeed="12.49" duration="13.00" routeLength="88.90" waitingTime="0.00" waitingCount="0" stopTime="0.00" timeLoss="8.45" rerouteNo="0" devices="tripinfo_dakeche.2" vType="dakeche" speedFactor="1.06" vaporized=""/>
    <tripinfo id="daxinghuoche.2" depart="11.00" departLane="H_1" departPos="13.10" departSpeed="0.00" departDelay="9.20" arrival="24.00" arrivalLane="H_1" arrivalPos="100.00" arrivalSpeed="12.71" duration="13.00" routeLength="86.90" waitingTime="0.00" waitingCount="0" stopTime="0.00" timeLoss="8.41" rerouteNo="0" devices="tripinfo_daxinghuoche.2" vType="daxinghuoche" speedFactor="0.94" vaporized=""/>
    <tripinfo id="xiaoxinghuoche.3" depart="13.00" departLane="H_3" departPos="6.10" departSpeed="0.00" departDelay="10.30" arrival="27.00" arrivalLane="H_3" arrivalPos="100.00" arrivalSpeed="13.41" duration="14.00" routeLength="93.90" waitingTime="0.00" waitingCount="0" stopTime="0.00" timeLoss="8.92" rerouteNo="0" devices="tripinfo_xiaoxinghuoche.3" vType="xiaoxinghuoche" speedFactor="1.01" vaporized=""/>
    <tripinfo id="tedaxinghuoche.1" depart="14.00" departLane="H_0" departPos="16.10" departSpeed="0.00" departDelay="13.10" arrival="28.00" arrivalLane="H_0" arrivalPos="100.00" arrivalSpeed="11.68" duration="14.00" routeLength="83.90" waitingTime="0.00" waitingCount="0" stopTime="0.00" timeLoss="9.58" rerouteNo="0" devices="tripinfo_tedaxinghuoche.1" vType="tedaxinghuoche" speedFactor="1.01" vaporized=""/>
    <tripinfo id="zhongxinghuoche.3" depart="15.00" departLane="H_2" departPos="9.70" departSpeed="0.00" departDelay="12.00" arrival="29.00" arrivalLane="H_2" arrivalPos="100.00" arrivalSpeed="12.58" duration="14.00" routeLength="90.30" waitingTime="0.00" waitingCount="0" stopTime="0.00" timeLoss="9.10" rerouteNo="0" devices="tripinfo_zhongxinghuoche.3" vType="zhongxinghuoche" speedFactor="1.01" vaporized=""/>
    <tripinfo id="dakeche.3" depart="16.00" departLane="H_4" departPos="11.10" departSpeed="0.00" departDelay="13.30" arrival="30.00" arrivalLane="H_4" arrivalPos="100.00" arrivalSpeed="13.54" duration="14.00" routeLength="88.90" waitingTime="0.00" waitingCount="0" stopTime="0.00" timeLoss="8.97" rerouteNo="0" devices="tripinfo_dakeche.3" vType="dakeche" speedFactor="1.08" vaporized=""/>
    <tripinfo id="daxinghuoche.3" depart="16.00" departLane="H_1" departPos="13.10" departSpeed="0.00" departDelay="13.30" arrival="30.00" arrivalLane="H_1" arrivalPos="100.00" arrivalSpeed="13.17" duration="14.00" routeLength="86.90" waitingTime="0.00" waitingCount="0" stopTime="0.00" timeLoss="9.04" rerouteNo="0" devices="tripinfo_daxinghuoche.3" vType="daxinghuoche" speedFactor="0.99" vaporized=""/>
    <tripinfo id="xiaokeche.2" depart="18.00" departLane="H_0" departPos="4.10" departSpeed="0.00" departDelay="16.00" arrival="31.00" arrivalLane="H_0" arrivalPos="100.00" arrivalSpeed="16.40" duration="13.00" routeLength="95.90" waitingTime="0.00" waitingCount="0" stopTime="0.00" timeLoss="7.41" rerouteNo="0" devices="tripinfo_xiaokeche.2" vType="xiaokeche" speedFactor="1.02" vaporized=""/>
    <tripinfo id="xiaoxinghuoche.4" depart="17.00" departLane="H_3" departPos="6.10" departSpeed="0.00" departDelay="13.40" arrival="31.00" arrivalLane="H_3" arrivalPos="100.00" arrivalSpeed="13.87" duration="14.00" routeLength="93.90" waitingTime="0.00" waitingCount="0" stopTime="0.00" timeLoss="8.77" rerouteNo="0" devices="tripinfo_xiaoxinghuoche.4" vType="xiaoxinghuoche" speedFactor="0.96" vaporized=""/>
    <tripinfo id="zhongxinghuoche.4" depart="20.00" departLane="H_2" departPos="9.70" departSpeed="0.00" departDelay="16.00" arrival="33.00" arrivalLane="H_2" arrivalPos="100.00" arrivalSpeed="12.29" duration="13.00" routeLength="90.30" waitingTime="0.00" waitingCount="0" stopTime="0.00" timeLoss="8.43" rerouteNo="0" devices="tripinfo_zhongxinghuoche.4" vType="zhongxinghuoche" speedFactor="0.97" vaporized=""/>
    <tripinfo id="dakeche.4" depart="21.00" departLane="H_4" departPos="11.10" departSpeed="0.00" departDelay="17.40" arrival="34.00" arrivalLane="H_4" arrivalPos="100.00" arrivalSpeed="13.18" duration="13.00" routeLength="88.90" waitingTime="0.00" waitingCount="0" stopTime="0.00" timeLoss="8.41" rerouteNo="0" devices="tripinfo_dakeche.4" vType="dakeche" speedFactor="0.94" vaporized=""/>
    <tripinfo id="daxinghuoche.4" depart="22.00" departLane="H_1" departPos="13.10" departSpeed="0.00" departDelay="18.40" arrival="35.00" arrivalLane="H_1" arrivalPos="100.00" arrivalSpeed="12.28" duration="13.00" routeLength="86.90" waitingTime="0.00" waitingCount="0" stopTime="0.00" timeLoss="8.58" rerouteNo="0" devices="tripinfo_daxinghuoche.4" vType="daxinghuoche" speedFactor="1.07" vaporized=""/>
    <tripinfo id="xiaoxinghuoche.5" depart="21.00" departLane="H_3" departPos="6.10" departSpeed="0.00" departDelay="16.50" arrival="35.00" arrivalLane="H_3" arrivalPos="100.00" arrivalSpeed="14.16" duration="14.00" routeLength="93.90" waitingTime="0.00" waitingCount="0" stopTime="0.00" timeLoss="8.85" rerouteNo="0" devices="tripinfo_xiaoxinghuoche.5" vType="xiaoxinghuoche" speedFactor="1.00" vaporized=""/>
    <tripinfo id="tedaxinghuoche.2" depart="23.00" departLane="H_0" departPos="16.10" departSpeed="0.00" departDelay="21.20" arrival="37.00" arrivalLane="H_0" arrivalPos="100.00" arrivalSpeed="12.68" duration="14.00" routeLength="83.90" waitingTime="0.00" waitingCount="0" stopTime="0.00" timeLoss="9.27" rerouteNo="0" devices="tripinfo_tedaxinghuoche.2" vType="tedaxinghuoche" speedFactor="0.97" vaporized=""/>
    <tripinfo id="xiaokeche.3" depart="27.00" departLane="H_0" departPos="4.10" departSpeed="0.00" departDelay="24.00" arrival="39.00" arrivalLane="H_0" arrivalPos="100.00" arrivalSpeed="16.02" duration="12.00" routeLength="95.90" waitingTime="0.00" waitingCount="0" stopTime="0.00" timeLoss="6.81" rerouteNo="0" devices="tripinfo_xiaokeche.3" vType="xiaokeche" speedFactor="0.97" vaporized=""/>
    <tripinfo id="zhongxinghuoche.5" depart="25.00" departLane="H_2" departPos="9.70" departSpeed="0.00" departDelay="20.00" arrival="39.00" arrivalLane="H_2" arrivalPos="100.00" arrivalSpeed="13.26" duration="14.00" routeLength="90.30" waitingTime="0.00" waitingCount="0" stopTime="0.00" timeLoss="8.85" rerouteNo="0" devices="tripinfo_zhongxinghuoche.5" vType="zhongxinghuoche" speedFactor="1.09" vaporized=""/>
    <tripinfo id="xiaoxinghuoche.6" depart="25.00" departLane="H_3" departPos="6.10" departSpeed="0.00" departDelay="19.60" arrival="39.00" arrivalLane="H_3" arrivalPos="100.00" arrivalSpeed="13.83" duration="14.00" routeLength="93.90" waitingTime="0.00" waitingCount="0" stopTime="0.00" timeLoss="9.04" rerouteNo="0" devices="tripinfo_xiaoxinghuoche.6" vType="xiaoxinghuoche" speedFactor="1.05" vaporized=""/>
    <tripinfo id="dakeche.5" depart="26.00" departLane="H_4" departPos="11.10" departSpeed="0.00" departDelay="21.50" arrival="40.00" arrivalLane="H_4" arrivalPos="100.00" arrivalSpeed="13.72" duration="14.00" routeLength="88.90" waitingTime="0.00" waitingCount="0" stopTime="0.00" timeLoss="8.91" rerouteNo="0" devices="tripinfo_dakeche.5" vType="dakeche" speedFactor="1.08" vaporized=""/>
    <tripinfo id="daxinghuoche.5" depart="28.00" departLane="H_1" departPos="13.10" departSpeed="0.00" departDelay="23.50" arrival="41.00" arrivalLane="H_1" arrivalPos="100.00" arrivalSpeed="12.34" duration="13.00" routeLength="86.90" waitingTime="0.00" waitingCount="0" stopTime="0.00" timeLoss="8.58" rerouteNo="0" devices="tripinfo_daxinghuoche.5" vType="daxinghuoche" speedFactor="1.00" vaporized=""/>
    <tripinfo id="zhongxinghuoche.6" depart="30.00" departLane="H_2" departPos="9.70" departSpeed="0.00" departDelay="24.00" arrival="44.00" arrivalLane="H_2" arrivalPos="100.00" arrivalSpeed="13.05" duration="14.00" routeLength="90.30" waitingTime="0.00" waitingCount="0" stopTime="0.00" timeLoss="8.95" rerouteNo="0" devices="tripinfo_zhongxinghuoche.6" vType="zhongxinghuoche" speedFactor="0.95" vaporized=""/>
    <tripinfo id="xiaoxinghuoche.7" depart="29.00" departLane="H_3" departPos="6.10" departSpeed="0.00" departDelay="22.70" arrival="44.00" arrivalLane="H_3" arrivalPos="100.00" arrivalSpeed="14.20" duration="15.00" routeLength="93.90" waitingTime="1.00" waitingCount="1" stopTime="0.00" timeLoss="9.72" rerouteNo="0" devices="tripinfo_xiaoxinghuoche.7" vType="xiaoxinghuoche" speedFactor="1.02" vaporized=""/>
    <tripinfo id="dakeche.6" depart="31.00" departLane="H_4" departPos="11.10" departSpeed="0.00" departDelay="25.60" arrival="45.00" arrivalLane="H_4" arrivalPos="100.00" arrivalSpeed="13.06" duration="14.00" routeLength="88.90" waitingTime="0.00" waitingCount="0" stopTime="0.00" timeLoss="9.11" rerouteNo="0" devices="tripinfo_dakeche.6" vType="dakeche" speedFactor="1.09" vaporized=""/>
    <tripinfo id="tedaxinghuoche.3" depart="32.00" departLane="H_0" departPos="16.10" departSpeed="0.00" departDelay="29.30" arrival="46.00" arrivalLane="H_0" arrivalPos="100.00" arrivalSpeed="11.61" duration="14.00" routeLength="83.90" waitingTime="0.00" waitingCount="0" stopTime="0.00" timeLoss="9.74" rerouteNo="0" devices="tripinfo_tedaxinghuoche.3" vType="tedaxinghuoche" speedFactor="0.94" vaporized=""/>
    <tripinfo id="daxinghuoche.6" depart="34.00" departLane="H_1" departPos="13.10" departSpeed="0.00" departDelay="28.60" arrival="47.00" arrivalLane="H_1" arrivalPos="100.00" arrivalSpeed="12.71" duration="13.00" routeLength="86.90" waitingTime="0.00" waitingCount="0" stopTime="0.00" timeLoss="8.55" rerouteNo="0" devices="tripinfo_daxinghuoche.6" vType="daxinghuoche" speedFactor="1.02" vaporized=""/>
    <tripinfo id="xiaoxinghuoche.8" depart="34.00" departLane="H_3" departPos="6.10" departSpeed="0.00" departDelay="26.80" arrival="47.00" arrivalLane="H_3" arrivalPos="100.00" arrivalSpeed="13.33" duration="13.00" routeLength="93.90" waitingTime="0.00" waitingCount="0" stopTime="0.00" timeLoss="8.25" rerouteNo="0" devices="tripinfo_xiaoxinghuoche.8" vType="xiaoxinghuoche" speedFactor="0.93" vaporized=""/>
    <tripinfo id="xiaokeche.4" depart="36.00" departLane="H_0" departPos="4.10" departSpeed="0.00" departDelay="32.00" arrival="49.00" arrivalLane="H_0" arrivalPos="100.00" arrivalSpeed="15.85" duration="13.00" routeLength="95.90" waitingTime="0.00" waitingCount="0" stopTime="0.00" timeLoss="7.62" rerouteNo="0" devices="tripinfo_xiaokeche.4" vType="xiaokeche" speedFactor="0.91" vaporized=""/>
    <tripinfo id="zhongxinghuoche.7" depart="35.00" departLane="H_2" departPos="9.70" departSpeed="0.00" departDelay="28.00" arrival="49.00" arrivalLane="H_2" arrivalPos="100.00" arrivalSpeed="14.16" duration="14.00" routeLength="90.30" waitingTime="0.00" waitingCount="0" stopTime="0.00" timeLoss="9.09" rerouteNo="0" devices="tripinfo_zhongxinghuoche.7" vType="zhongxinghuoche" speedFactor="1.04" vaporized=""/>
    <tripinfo id="dakeche.7" depart="36.00" departLane="H_4" departPos="11.10" departSpeed="0.00" departDelay="29.70" arrival="50.00" arrivalLane="H_4" arrivalPos="100.00" arrivalSpeed="13.38" duration="14.00" routeLength="88.90" waitingTime="0.00" waitingCount="0" stopTime="0.00" timeLoss="9.31" rerouteNo="0" devices="tripinfo_dakeche.7" vType="dakeche" speedFactor="1.02" vaporized=""/>
    <tripinfo id="xiaoxinghuoche.9" depart="38.00" departLane="H_3" departPos="6.10" departSpeed="0.00" departDelay="29.90" arrival="52.00" arrivalLane="H_3" arrivalPos="100.00" arrivalSpeed="13.08" duration="14.00" routeLength="93.90" waitingTime="0.00" waitingCount="0" stopTime="0.00" timeLoss="9.26" rerouteNo="0" devices="tripinfo_xiaoxinghuoche.9" vType="xiaoxinghuoche" speedFactor="1.07" vaporized=""/>
    <tripinfo id="daxinghuoche.7" depart="40.00" departLane="H_1" departPos="13.10" departSpeed="0.00" departDelay="33.70" arrival="54.00" arrivalLane="H_1" arrivalPos="100.00" arrivalSpeed="13.30" duration="14.00" routeLength="86.90" waitingTime="0.00" waitingCount="0" stopTime="0.00" timeLoss="9.13" rerouteNo="0" devices="tripinfo_daxinghuoche.7" vType="daxinghuoche" speedFactor="1.00" vaporized=""/>
    <tripinfo id="zhongxinghuoche.8" depart="40.00" departLane="H_2" departPos="9.70" departSpeed="0.00" departDelay="32.00" arrival="54.00" arrivalLane="H_2" arrivalPos="100.00" arrivalSpeed="13.44" duration="14.00" routeLength="90.30" waitingTime="0.00" waitingCount="0" stopTime="0.00" timeLoss="9.12" rerouteNo="0" devices="tripinfo_zhongxinghuoche.8" vType="zhongxinghuoche" speedFactor="1.08" vaporized=""/>
    <tripinfo id="tedaxinghuoche.4" depart="41.00" departLane="H_0" departPos="16.10" departSpeed="0.00" departDelay="37.40" arrival="55.00" arrivalLane="H_0" arrivalPos="100.00" arrivalSpeed="11.69" duration="14.00" routeLength="83.90" waitingTime="0.00" waitingCount="0" stopTime="0.00" timeLoss="9.61" rerouteNo="0" devices="tripinfo_tedaxinghuoche.4" vType="tedaxinghuoche" speedFactor="0.97" vaporized=""/>
    <tripinfo id="dakeche.8" depart="42.00" departLane="H_4" departPos="11.10" departSpeed="0.00" departDelay="34.80" arrival="55.00" arrivalLane="H_4" arrivalPos="100.00" arrivalSpeed="12.95" duration="13.00" routeLength="88.90" waitingTime="0.00" waitingCount="0" stopTime="0.00" timeLoss="8.43" rerouteNo="0" devices="tripinfo_dakeche.8" vType="dakeche" speedFactor="0.93" vaporized=""/>
    <tripinfo id="xiaoxinghuoche.10" depart="42.00" departLane="H_3" departPos="6.10" departSpeed="0.00" departDelay="33.00" arrival="56.00" arrivalLane="H_3" arrivalPos="100.00" arrivalSpeed="14.35" duration="14.00" routeLength="93.90" waitingTime="0.00" waitingCount="0" stopTime="0.00" timeLoss="8.76" rerouteNo="0" devices="tripinfo_xiaoxinghuoche.10" vType="xiaoxinghuoche" speedFactor="1.01" vaporized=""/>
    <tripinfo id="xiaokeche.5" depart="45.00" departLane="H_0" departPos="4.10" departSpeed="0.00" departDelay="40.00" arrival="57.00" arrivalLane="H_0" arrivalPos="100.00" arrivalSpeed="15.66" duration="12.00" routeLength="95.90" waitingTime="0.00" waitingCount="0" stopTime="0.00" timeLoss="7.13" rerouteNo="0" devices="tripinfo_xiaokeche.5" vType="xiaokeche" speedFactor="1.09" vaporized=""/>
    <tripinfo id="daxinghuoche.8" depart="46.00" departLane="H_1" departPos="13.10" departSpeed="0.00" departDelay="38.80" arrival="58.00" arrivalLane="H_1" arrivalPos="100.00" arrivalSpeed="13.68" duration="12.00" routeLength="86.90" waitingTime="0.00" waitingCount="0" stopTime="0.00" timeLoss="7.63" rerouteNo="0" devices="tripinfo_daxinghuoche.8" vType="daxinghuoche" speedFactor="1.01" vaporized=""/>
    <tripinfo id="zhongxinghuoche.9" depart="45.00" departLane="H_2" departPos="9.70" departSpeed="0.00" departDelay="36.00" arrival="59.00" arrivalLane="H_2" arrivalPos="100.00" arrivalSpeed="13.92" duration="14.00" routeLength="90.30" waitingTime="0.00" waitingCount="0" stopTime="0.00" timeLoss="9.06" rerouteNo="0" devices="tripinfo_zhongxinghuoche.9" vType="zhongxinghuoche" speedFactor="0.98" vaporized=""/>
    <tripinfo id="dakeche.9" depart="47.00" departLane="H_4" departPos="11.10" departSpeed="0.00" departDelay="38.90" arrival="61.00" arrivalLane="H_4" arrivalPos="100.00" arrivalSpeed="13.13" duration="14.00" routeLength="88.90" waitingTime="0.00" waitingCount="0" stopTime="0.00" timeLoss="9.11" rerouteNo="0" devices="tripinfo_dakeche.9" vType="dakeche" speedFactor="1.00" vaporized=""/>
    <tripinfo id="xiaoxinghuoche.11" depart="47.00" departLane="H_3" departPos="6.10" departSpeed="0.00" departDelay="37.10" arrival="61.00" arrivalLane="H_3" arrivalPos="100.00" arrivalSpeed="13.12" duration="14.00" routeLength="93.90" waitingTime="0.00" waitingCount="0" stopTime="0.00" timeLoss="8.90" rerouteNo="0" devices="tripinfo_xiaoxinghuoche.11" vType="xiaoxinghuoche" speedFactor="0.95" vaporized=""/>
    <tripinfo id="daxinghuoche.9" depart="51.00" departLane="H_1" departPos="13.10" departSpeed="0.00" departDelay="42.90" arrival="64.00" arrivalLane="H_1" arrivalPos="100.00" arrivalSpeed="14.01" duration="13.00" routeLength="86.90" waitingTime="0.00" waitingCount="0" stopTime="0.00" timeLoss="8.10" rerouteNo="0" devices="tripinfo_daxinghuoche.9" vType="daxinghuoche" speedFactor="1.04" vaporized=""/>
    <tripinfo id="zhongxinghuoche.10" depart="50.00" departLane="H_2" departPos="9.70" departSpeed="0.00" departDelay="40.00" arrival="64.00" arrivalLane="H_2" arrivalPos="100.00" arrivalSpeed="14.08" duration="14.00" routeLength="90.30" waitingTime="0.00" waitingCount="0" stopTime="0.00" timeLoss="8.94" rerouteNo="0" devices="tripinfo_zhongxinghuoche.10" vType="zhongxinghuoche" speedFactor="0.96" vaporized=""/>
    <tripinfo id="tedaxinghuoche.5" depart="50.00" departLane="H_0" departPos="16.10" departSpeed="0.00" departDelay="45.50" arrival="65.00" arrivalLane="H_0" arrivalPos="100.00" arrivalSpeed="10.87" duration="15.00" routeLength="83.90" waitingTime="0.00" waitingCount="0" stopTime="0.00" timeLoss="10.66" rerouteNo="0" devices="tripinfo_tedaxinghuoche.5" vType="tedaxinghuoche" speedFactor="1.01" vaporized=""/>
    <tripinfo id="dakeche.10" depart="52.00" departLane="H_4" departPos="11.10" departSpeed="0.00" departDelay="43.00" arrival="65.00" arrivalLane="H_4" arrivalPos="100.00" arrivalSpeed="12.75" duration="13.00" routeLength="88.90" waitingTime="0.00" waitingCount="0" stopTime="0.00" timeLoss="8.51" rerouteNo="0" devices="tripinfo_dakeche.10" vType="dakeche" speedFactor="0.95" vaporized=""/>
    <tripinfo id="xiaoxinghuoche.12" depart="51.00" departLane="H_3" departPos="6.10" departSpeed="0.00" departDelay="40.20" arrival="65.00" arrivalLane="H_3" arrivalPos="100.00" arrivalSpeed="13.50" duration="14.00" routeLength="93.90" waitingTime="0.00" waitingCount="0" stopTime="0.00" timeLoss="8.78" rerouteNo="0" devices="tripinfo_xiaoxinghuoche.12" vType="xiaoxinghuoche" speedFactor="0.97" vaporized=""/>
    <tripinfo id="xiaokeche.6" depart="54.00" departLane="H_0" departPos="4.10" departSpeed="0.00" departDelay="48.00" arrival="68.00" arrivalLane="H_0" arrivalPos="100.00" arrivalSpeed="16.40" duration="14.00" routeLength="95.90" waitingTime="0.00" waitingCount="0" stopTime="0.00" timeLoss="8.43" rerouteNo="0" devices="tripinfo_xiaokeche.6" vType="xiaokeche" speedFactor="0.99" vaporized=""/>
    <tripinfo id="zhongxinghuoche.11" depart="56.00" departLane="H_2" departPos="9.70" departSpeed="0.00" departDelay="45.00" arrival="69.00" arrivalLane="H_2" arrivalPos="100.00" arrivalSpeed="13.10" duration="13.00" routeLength="90.30" waitingTime="0.00" waitingCount="0" stopTime="0.00" timeLoss="8.35" rerouteNo="0" devices="tripinfo_zhongxinghuoche.11" vType="zhongxinghuoche" speedFactor="1.03" vaporized=""/>
    <tripinfo id="xiaoxinghuoche.13" depart="55.00" departLane="H_3" departPos="6.10" departSpeed="0.00" departDelay="43.30" arrival="69.00" arrivalLane="H_3" arrivalPos="100.00" arrivalSpeed="13.13" duration="14.00" routeLength="93.90" waitingTime="0.00" waitingCount="0" stopTime="0.00" timeLoss="9.24" rerouteNo="0" devices="tripinfo_xiaoxinghuoche.13" vType="xiaoxinghuoche" speedFactor="1.00" vaporized=""/>
    <tripinfo id="daxinghuoche.10" depart="56.00" departLane="H_1" departPos="13.10" departSpeed="0.00" departDelay="47.00" arrival="70.00" arrivalLane="H_1" arrivalPos="100.00" arrivalSpeed="13.65" duration="14.00" routeLength="86.90" waitingTime="0.00" waitingCount="0" stopTime="0.00" timeLoss="9.13" rerouteNo="0" devices="tripinfo_daxinghuoche.10" vType="daxinghuoche" speedFactor="1.06" vaporized=""/>
    <tripinfo id="dakeche.11" depart="57.00" departLane="H_4" departPos="11.10" departSpeed="0.00" departDelay="47.10" arrival="71.00" arrivalLane="H_4" arrivalPos="100.00" arrivalSpeed="13.40" duration="14.00" routeLength="88.90" waitingTime="0.00" waitingCount="0" stopTime="0.00" timeLoss="9.10" rerouteNo="0" devices="tripinfo_dakeche.11" vType="dakeche" speedFactor="0.94" vaporized=""/>
    <tripinfo id="xiaoxinghuoche.14" depart="59.00" departLane="H_3" departPos="6.10" departSpeed="0.00" departDelay="46.40" arrival="73.00" arrivalLane="H_3" arrivalPos="100.00" arrivalSpeed="13.79" duration="14.00" routeLength="93.90" waitingTime="0.00" waitingCount="0" stopTime="0.00" timeLoss="9.00" rerouteNo="0" devices="tripinfo_xiaoxinghuoche.14" vType="xiaoxinghuoche" speedFactor="1.07" vaporized=""/>
    <tripinfo id="tedaxinghuoche.6" depart="60.00" departLane="H_0" departPos="16.10" departSpeed="0.00" departDelay="54.60" arrival="74.00" arrivalLane="H_0" arrivalPos="100.00" arrivalSpeed="11.35" duration="14.00" routeLength="83.90" waitingTime="0.00" waitingCount="0" stopTime="0.00" timeLoss="9.66" rerouteNo="0" devices="tripinfo_tedaxinghuoche.6" vType="tedaxinghuoche" speedFactor="0.98" vaporized=""/>
    <tripinfo id="zhongxinghuoche.12" depart="61.00" departLane="H_2" departPos="9.70" departSpeed="0.00" departDelay="49.00" arrival="74.00" arrivalLane="H_2" arrivalPos="100.00" arrivalSpeed="12.82" duration="13.00" routeLength="90.30" waitingTime="0.00" waitingCount="0" stopTime="0.00" timeLoss="8.28" rerouteNo="0" devices="tripinfo_zhongxinghuoche.12" vType="zhongxinghuoche" speedFactor="1.04" vaporized=""/>
    <tripinfo id="daxinghuoche.11" depart="62.00" departLane="H_1" departPos="13.10" departSpeed="0.00" departDelay="52.10" arrival="75.00" arrivalLane="H_1" arrivalPos="100.00" arrivalSpeed="13.02" duration="13.00" routeLength="86.90" waitingTime="0.00" waitingCount="0" stopTime="0.00" timeLoss="8.41" rerouteNo="0" devices="tripinfo_daxinghuoche.11" vType="daxinghuoche" speedFactor="1.02" vaporized=""/>
    <tripinfo id="xiaokeche.7" depart="64.00" departLane="H_0" departPos="4.10" departSpeed="0.00" departDelay="57.00" arrival="77.00" arrivalLane="H_0" arrivalPos="100.00" arrivalSpeed="17.23" duration="13.00" routeLength="95.90" waitingTime="0.00" waitingCount="0" stopTime="0.00" timeLoss="7.39" rerouteNo="0" devices="tripinfo_xiaokeche.7" vType="xiaokeche" speedFactor="1.05" vaporized=""/>
    <tripinfo id="dakeche.12" depart="63.00" departLane="H_4" departPos="11.10" departSpeed="0.00" departDelay="52.20" arrival="77.00" arrivalLane="H_4" arrivalPos="100.00" arrivalSpeed="12.97" duration="14.00" routeLength="88.90" waitingTime="0.00" waitingCount="0" stopTime="0.00" timeLoss="9.05" rerouteNo="0" devices="tripinfo_dakeche.12" vType="dakeche" speedFactor="0.99" vaporized=""/>
    <tripinfo id="xiaoxinghuoche.15" depart="64.00" departLane="H_3" departPos="6.10" departSpeed="0.00" departDelay="50.50" arrival="78.00" arrivalLane="H_3" arrivalPos="100.00" arrivalSpeed="14.00" duration="14.00" routeLength="93.90" waitingTime="0.00" waitingCount="0" stopTime="0.00" timeLoss="8.80" rerouteNo="0" devices="tripinfo_xiaoxinghuoche.15" vType="xiaoxinghuoche" speedFactor="1.01" vaporized=""/>
    <tripinfo id="zhongxinghuoche.13" depart="66.00" departLane="H_2" departPos="9.70" departSpeed="0.00" departDelay="53.00" arrival="79.00" arrivalLane="H_2" arrivalPos="100.00" arrivalSpeed="13.56" duration="13.00" routeLength="90.30" waitingTime="0.00" waitingCount="0" stopTime="0.00" timeLoss="8.21" rerouteNo="0" devices="tripinfo_zhongxinghuoche.13" vType="zhongxinghuoche" speedFactor="0.99" vaporized=""/>
    <tripinfo id="daxinghuoche.12" depart="68.00" departLane="H_1" departPos="13.10" departSpeed="0.00" departDelay="57.20" arrival="81.00" arrivalLane="H_1" arrivalPos="100.00" arrivalSpeed="12.43" duration="13.00" routeLength="86.90" waitingTime="0.00" waitingCount="0" stopTime="0.00" timeLoss="8.57" rerouteNo="0" devices="tripinfo_daxinghuoche.12" vType="daxinghuoche" speedFactor="0.98" vaporized=""/>