<?xml version="1.0" encoding="UTF-8"?>

<!-- generated on 11/04/21 23:44:33 by Eclipse SUMO GUI Version 1.8.0
<configuration xmlns:xsi="http://www.w3.org/2001/XMLSchema-instance" xsi:noNamespaceSchemaLocation="http://sumo.dlr.de/xsd/sumoConfiguration.xsd">

    <input>
        <net-file value="F:\software%20two\sumo-1.8.0/file1/test1.net.xml"/>
        <route-files value="F:\software%20two\sumo-1.8.0/file1/routes.rou.xml"/>
    </input>

    <output>
        <tripinfo-output value="F:\sumo_pro/traci_main/main/tripinfo2_TEST.xml"/>
    </output>

    <time>
        <begin value="0"/>
        <end value="2000"/>
    </time>

    <report>
        <verbose value="true"/>
        <duration-log.statistics value="true"/>
    </report>

    <traci_server>
        <remote-port value="63331"/>
    </traci_server>

    <gui_only>
        <gui-settings-file value="F:\software%20two\sumo-1.8.0/file1/gui-settings.cfg"/>
        <quit-on-end value="true"/>
        <start value="true"/>
    </gui_only>

</configuration>
-->

<tripinfos xmlns:xsi="http://www.w3.org/2001/XMLSchema-instance" xsi:noNamespaceSchemaLocation="http://sumo.dlr.de/xsd/tripinfo_file.xsd">
    <tripinfo id="b1.0" depart="0.00" departLane="C1_1" departPos="4.60" departSpeed="0.00" departDelay="0.00" arrival="15.00" arrivalLane="Z2_0" arrivalPos="55.39" arrivalSpeed="19.00" duration="15.00" routeLength="203.85" waitingTime="0.00" waitingCount="0" stopTime="0.00" timeLoss="3.70" rerouteNo="0" devices="tripinfo_b1.0" vType="myType" speedFactor="1.04" vaporized=""/>
    <tripinfo id="b2.0" depart="0.00" departLane="C1_0" departPos="4.60" departSpeed="0.00" departDelay="0.00" arrival="16.00" arrivalLane="C2_0" arrivalPos="42.50" arrivalSpeed="13.59" duration="16.00" routeLength="190.96" waitingTime="0.00" waitingCount="0" stopTime="0.00" timeLoss="4.44" rerouteNo="0" devices="tripinfo_b2.0" vType="myType" speedFactor="1.02" vaporized=""/>
    <tripinfo id="a1.0" depart="0.00" departLane="Z1_1" departPos="4.60" departSpeed="0.00" departDelay="0.00" arrival="17.00" arrivalLane="Z2_1" arrivalPos="55.39" arrivalSpeed="18.85" duration="17.00" routeLength="230.27" waitingTime="0.00" waitingCount="0" stopTime="0.00" timeLoss="5.13" rerouteNo="0" devices="tripinfo_a1.0" vType="myType" speedFactor="1.03" vaporized=""/>
    <tripinfo id="a1_1.0" depart="0.00" departLane="Z1_2" departPos="4.60" departSpeed="0.00" departDelay="0.00" arrival="17.00" arrivalLane="Z2_2" arrivalPos="55.39" arrivalSpeed="18.93" duration="17.00" routeLength="230.27" waitingTime="0.00" waitingCount="0" stopTime="0.00" timeLoss="5.09" rerouteNo="0" devices="tripinfo_a1_1.0" vType="myType" speedFactor="0.97" vaporized=""/>
    <tripinfo id="a2.0" depart="0.00" departLane="Z1_0" departPos="4.60" departSpeed="0.00" departDelay="0.00" arrival="18.00" arrivalLane="C2_1" arrivalPos="42.50" arrivalSpeed="13.81" duration="18.00" routeLength="217.38" waitingTime="0.00" waitingCount="0" stopTime="0.00" timeLoss="5.47" rerouteNo="0" devices="tripinfo_a2.0" vType="myType" speedFactor="1.01" vaporized=""/>
    <tripinfo id="a1_1.1" depart="3.00" departLane="Z1_2" departPos="4.60" departSpeed="0.00" departDelay="2.10" arrival="19.00" arrivalLane="Z2_2" arrivalPos="55.39" arrivalSpeed="18.84" duration="16.00" routeLength="230.27" waitingTime="0.00" waitingCount="0" stopTime="0.00" timeLoss="4.47" rerouteNo="0" devices="tripinfo_a1_1.1" vType="myType" speedFactor="1.02" vaporized=""/>
    <tripinfo id="a1.1" depart="3.00" departLane="Z1_1" departPos="4.60" departSpeed="0.00" departDelay="2.00" arrival="20.00" arrivalLane="Z2_1" arrivalPos="55.39" arrivalSpeed="19.92" duration="17.00" routeLength="230.27" waitingTime="0.00" waitingCount="0" stopTime="0.00" timeLoss="4.86" rerouteNo="0" devices="tripinfo_a1.1" vType="myType" speedFactor="0.92" vaporized=""/>
    <tripinfo id="b2.1" depart="4.00" departLane="C1_0" departPos="4.60" departSpeed="0.00" departDelay="0.40" arrival="20.00" arrivalLane="C2_0" arrivalPos="42.50" arrivalSpeed="12.97" duration="16.00" routeLength="190.96" waitingTime="0.00" waitingCount="0" stopTime="0.00" timeLoss="4.06" rerouteNo="0" devices="tripinfo_b2.1" vType="myType" speedFactor="0.97" vaporized=""/>
    <tripinfo id="a2.1" depart="2.00" departLane="Z1_0" departPos="4.60" departSpeed="0.00" departDelay="0.80" arrival="21.00" arrivalLane="C2_1" arrivalPos="42.50" arrivalSpeed="12.39" duration="19.00" routeLength="217.38" waitingTime="0.00" waitingCount="0" stopTime="0.00" timeLoss="6.46" rerouteNo="0" devices="tripinfo_a2.1" vType="myType" speedFactor="0.93" vaporized=""/>
    <tripinfo id="b1.1" depart="4.00" departLane="C1_1" departPos="4.60" departSpeed="0.00" departDelay="0.40" arrival="21.00" arrivalLane="Z2_0" arrivalPos="55.39" arrivalSpeed="19.93" duration="17.00" routeLength="203.85" waitingTime="0.00" waitingCount="0" stopTime="0.00" timeLoss="5.47" rerouteNo="0" devices="tripinfo_b1.1" vType="myType" speedFactor="0.94" vaporized=""/>
    <tripinfo id="a1.2" depart="6.00" departLane="Z1_1" departPos="4.60" departSpeed="0.00" departDelay="4.00" arrival="22.00" arrivalLane="Z2_1" arrivalPos="55.39" arrivalSpeed="19.60" duration="16.00" routeLength="230.27" waitingTime="0.00" waitingCount="0" stopTime="0.00" timeLoss="4.27" rerouteNo="0" devices="tripinfo_a1.2" vType="myType" speedFactor="0.94" vaporized=""/>
    <tripinfo id="a1_1.2" depart="6.00" departLane="Z1_2" departPos="4.60" departSpeed="0.00" departDelay="4.20" arrival="23.00" arrivalLane="Z2_2" arrivalPos="55.39" arrivalSpeed="19.32" duration="17.00" routeLength="230.27" waitingTime="0.00" waitingCount="0" stopTime="0.00" timeLoss="5.11" rerouteNo="0" devices="tripinfo_a1_1.2" vType="myType" speedFactor="0.97" vaporized=""/>
    <tripinfo id="b1.2" depart="8.00" departLane="C1_1" departPos="4.60" departSpeed="0.00" departDelay="0.80" arrival="24.00" arrivalLane="Z2_0" arrivalPos="55.39" arrivalSpeed="19.27" duration="16.00" routeLength="203.85" waitingTime="0.00" waitingCount="0" stopTime="0.00" timeLoss="4.42" rerouteNo="0" devices="tripinfo_b1.2" vType="myType" speedFactor="0.97" vaporized=""/>
    <tripinfo id="b2.2" depart="8.00" departLane="C1_0" departPos="4.60" departSpeed="0.00" departDelay="0.80" arrival="24.00" arrivalLane="C2_0" arrivalPos="42.50" arrivalSpeed="14.69" duration="16.00" routeLength="190.96" waitingTime="0.00" waitingCount="0" stopTime="0.00" timeLoss="4.37" rerouteNo="0" devices="tripinfo_b2.2" vType="myType" speedFactor="1.09" vaporized=""/>
    <tripinfo id="a1.3" depart="8.00" departLane="Z1_1" departPos="4.60" departSpeed="0.00" departDelay="5.00" arrival="25.00" arrivalLane="Z2_1" arrivalPos="55.39" arrivalSpeed="19.69" duration="17.00" routeLength="230.27" waitingTime="0.00" waitingCount="0" stopTime="0.00" timeLoss="5.10" rerouteNo="0" devices="tripinfo_a1.3" vType="myType" speedFactor="1.05" vaporized=""/>
    <tripinfo id="a1_1.3" depart="9.00" departLane="Z1_2" departPos="4.60" departSpeed="0.00" departDelay="6.30" arrival="26.00" arrivalLane="Z2_2" arrivalPos="55.39" arrivalSpeed="18.87" duration="17.00" routeLength="230.27" waitingTime="0.00" waitingCount="0" stopTime="0.00" timeLoss="4.91" rerouteNo="0" devices="tripinfo_a1_1.3" vType="myType" speedFactor="1.01" vaporized=""/>
    <tripinfo id="a2.2" depart="6.00" departLane="Z1_0" departPos="4.60" departSpeed="0.00" departDelay="3.60" arrival="26.00" arrivalLane="C2_1" arrivalPos="42.50" arrivalSpeed="13.09" duration="20.00" routeLength="217.38" waitingTime="0.00" waitingCount="0" stopTime="0.00" timeLoss="8.00" rerouteNo="0" devices="tripinfo_a2.2" vType="myType" speedFactor="1.02" vaporized=""/>
    <tripinfo id="b2.3" depart="11.00" departLane="C1_0" departPos="4.60" departSpeed="0.00" departDelay="0.20" arrival="27.00" arrivalLane="C2_0" arrivalPos="42.50" arrivalSpeed="13.91" duration="16.00" routeLength="190.96" waitingTime="0.00" waitingCount="0" stopTime="0.00" timeLoss="4.05" rerouteNo="0" devices="tripinfo_b2.3" vType="myType" speedFactor="1.05" vaporized=""/>
    <tripinfo id="a1.4" depart="11.00" departLane="Z1_1" departPos="4.60" departSpeed="0.00" departDelay="7.00" arrival="28.00" arrivalLane="Z2_1" arrivalPos="55.39" arrivalSpeed="19.84" duration="17.00" routeLength="230.27" waitingTime="0.00" waitingCount="0" stopTime="0.00" timeLoss="5.44" rerouteNo="0" devices="tripinfo_a1.4" vType="myType" speedFactor="1.06" vaporized=""/>
    <tripinfo id="a1_1.4" depart="12.00" departLane="Z1_2" departPos="4.60" departSpeed="0.00" departDelay="8.40" arrival="29.00" arrivalLane="Z2_2" arrivalPos="55.39" arrivalSpeed="19.72" duration="17.00" routeLength="230.27" waitingTime="0.00" waitingCount="0" stopTime="0.00" timeLoss="5.08" rerouteNo="0" devices="tripinfo_a1_1.4" vType="myType" speedFactor="1.00" vaporized=""/>
    <tripinfo id="a2.3" depart="9.00" departLane="Z1_0" departPos="4.60" departSpeed="0.00" departDelay="5.40" arrival="29.00" arrivalLane="C2_1" arrivalPos="42.50" arrivalSpeed="13.19" duration="20.00" routeLength="217.38" waitingTime="0.00" waitingCount="0" stopTime="0.00" timeLoss="7.48" rerouteNo="0" devices="tripinfo_a2.3" vType="myType" speedFactor="0.96" vaporized=""/>
    <tripinfo id="b1.3" depart="11.00" departLane="C1_1" departPos="4.60" departSpeed="0.00" departDelay="0.20" arrival="30.00" arrivalLane="Z2_0" arrivalPos="55.39" arrivalSpeed="19.49" duration="19.00" routeLength="203.85" waitingTime="0.00" waitingCount="0" stopTime="0.00" timeLoss="7.28" rerouteNo="0" devices="tripinfo_b1.3" vType="myType" speedFactor="0.98" vaporized=""/>
    <tripinfo id="a1.5" depart="14.00" departLane="Z1_1" departPos="4.60" departSpeed="0.00" departDelay="9.00" arrival="32.00" arrivalLane="Z2_1" arrivalPos="55.39" arrivalSpeed="19.11" duration="18.00" routeLength="230.27" waitingTime="1.00" waitingCount="1" stopTime="0.00" timeLoss="5.62" rerouteNo="0" devices="tripinfo_a1.5" vType="myType" speedFactor="0.97" vaporized=""/>
    <tripinfo id="a1_1.5" depart="15.00" departLane="Z1_2" departPos="4.60" departSpeed="0.00" departDelay="10.50" arrival="32.00" arrivalLane="Z2_2" arrivalPos="55.39" arrivalSpeed="19.30" duration="17.00" routeLength="230.27" waitingTime="0.00" waitingCount="0" stopTime="0.00" timeLoss="5.10" rerouteNo="0" devices="tripinfo_a1_1.5" vType="myType" speedFactor="1.08" vaporized=""/>
    <tripinfo id="a2.4" depart="12.00" departLane="Z1_0" departPos="4.60" departSpeed="0.00" departDelay="7.20" arrival="32.00" arrivalLane="C2_1" arrivalPos="42.50" arrivalSpeed="13.19" duration="20.00" routeLength="217.38" waitingTime="0.00" waitingCount="0" stopTime="0.00" timeLoss="7.61" rerouteNo="0" devices="tripinfo_a2.4" vType="myType" speedFactor="1.01" vaporized=""/>
    <tripinfo id="b2.4" depart="15.00" departLane="C1_0" departPos="4.60" departSpeed="0.00" departDelay="0.60" arrival="32.00" arrivalLane="C2_0" arrivalPos="42.50" arrivalSpeed="12.59" duration="17.00" routeLength="190.96" waitingTime="0.00" waitingCount="0" stopTime="0.00" timeLoss="4.51" rerouteNo="0" devices="tripinfo_b2.4" vType="myType" speedFactor="1.00" vaporized=""/>
    <tripinfo id="b1.4" depart="15.00" departLane="C1_1" departPos="4.60" departSpeed="0.00" departDelay="0.60" arrival="34.00" arrivalLane="Z2_0" arrivalPos="55.39" arrivalSpeed="18.74" duration="19.00" routeLength="203.85" waitingTime="0.00" waitingCount="0" stopTime="0.00" timeLoss="7.13" rerouteNo="0" devices="tripinfo_b1.4" vType="myType" speedFactor="1.00" vaporized=""/>
    <tripinfo id="a1.6" depart="18.00" departLane="Z1_1" departPos="4.60" departSpeed="0.00" departDelay="12.00" arrival="35.00" arrivalLane="Z2_1" arrivalPos="55.39" arrivalSpeed="18.72" duration="17.00" routeLength="230.27" waitingTime="0.00" waitingCount="0" stopTime="0.00" timeLoss="5.04" rerouteNo="0" devices="tripinfo_a1.6" vType="myType" speedFactor="1.01" vaporized=""/>
    <tripinfo id="a1_1.6" depart="18.00" departLane="Z1_2" departPos="4.60" departSpeed="0.00" departDelay="12.60" arrival="35.00" arrivalLane="Z2_2" arrivalPos="55.39" arrivalSpeed="19.81" duration="17.00" routeLength="230.27" waitingTime="0.00" waitingCount="0" stopTime="0.00" timeLoss="4.80" rerouteNo="0" devices="tripinfo_a1_1.6" vType="myType" speedFactor="0.99" vaporized=""/>
    <tripinfo id="b2.5" depart="18.00" departLane="C1_0" departPos="4.60" departSpeed="0.00" departDelay="0.00" arrival="35.00" arrivalLane="C2_0" arrivalPos="42.50" arrivalSpeed="12.38" duration="17.00" routeLength="190.96" waitingTime="0.00" waitingCount="0" stopTime="0.00" timeLoss="4.89" rerouteNo="0" devices="tripinfo_b2.5" vType="myType" speedFactor="0.96" vaporized=""/>
    <tripinfo id="a2.5" depart="15.00" departLane="Z1_0" departPos="4.60" departSpeed="0.00" departDelay="9.00" arrival="36.00" arrivalLane="C2_1" arrivalPos="42.50" arrivalSpeed="12.29" duration="21.00" routeLength="217.38" waitingTime="0.00" waitingCount="0" stopTime="0.00" timeLoss="8.68" rerouteNo="0" devices="tripinfo_a2.5" vType="myType" speedFactor="0.94" vaporized=""/>
    <tripinfo id="a1.7" depart="21.00" departLane="Z1_1" departPos="4.60" departSpeed="0.00" departDelay="14.00" arrival="38.00" arrivalLane="Z2_1" arrivalPos="55.39" arrivalSpeed="19.66" duration="17.00" routeLength="230.27" waitingTime="0.00" waitingCount="0" stopTime="0.00" timeLoss="5.44" rerouteNo="0" devices="tripinfo_a1.7" vType="myType" speedFactor="0.91" vaporized=""/>
    <tripinfo id="a1_1.7" depart="21.00" departLane="Z1_2" departPos="4.60" departSpeed="0.00" departDelay="14.70" arrival="38.00" arrivalLane="Z2_2" arrivalPos="55.39" arrivalSpeed="19.91" duration="17.00" routeLength="230.27" waitingTime="0.00" waitingCount="0" stopTime="0.00" timeLoss="5.02" rerouteNo="0" devices="tripinfo_a1_1.7" vType="myType" speedFactor="0.94" vaporized=""/>
    <tripinfo id="b1.5" depart="18.00" departLane="C1_1" departPos="4.60" departSpeed="0.00" departDelay="0.00" arrival="38.00" arrivalLane="Z2_0" arrivalPos="55.39" arrivalSpeed="19.51" duration="20.00" routeLength="203.85" waitingTime="0.00" waitingCount="0" stopTime="0.00" timeLoss="8.68" rerouteNo="0" devices="tripinfo_b1.5" vType="myType" speedFactor="0.95" vaporized=""/>
    <tripinfo id="b2.6" depart="22.00" departLane="C1_0" departPos="4.60" departSpeed="0.00" departDelay="0.40" arrival="38.00" arrivalLane="C2_0" arrivalPos="42.50" arrivalSpeed="13.29" duration="16.00" routeLength="190.96" waitingTime="0.00" waitingCount="0" stopTime="0.00" timeLoss="4.11" rerouteNo="0" devices="tripinfo_b2.6" vType="myType" speedFactor="1.02" vaporized=""/>
    <tripinfo id="a2.6" depart="18.00" departLane="Z1_0" departPos="4.60" departSpeed="0.00" departDelay="10.80" arrival="40.00" arrivalLane="C2_1" arrivalPos="42.50" arrivalSpeed="14.16" duration="22.00" routeLength="217.38" waitingTime="0.00" waitingCount="0" stopTime="0.00" timeLoss="9.68" rerouteNo="0" devices="tripinfo_a2.6" vType="myType" speedFactor="1.07" vaporized=""/>
    <tripinfo id="a1.8" depart="24.00" departLane="Z1_1" departPos="4.60" departSpeed="0.00" departDelay="16.00" arrival="41.00" arrivalLane="Z2_1" arrivalPos="55.39" arrivalSpeed="19.33" duration="17.00" routeLength="230.27" waitingTime="0.00" waitingCount="0" stopTime="0.00" timeLoss="4.87" rerouteNo="0" devices="tripinfo_a1.8" vType="myType" speedFactor="0.96" vaporized=""/>
    <tripinfo id="a1_1.8" depart="24.00" departLane="Z1_2" departPos="4.60" departSpeed="0.00" departDelay="16.80" arrival="41.00" arrivalLane="Z2_2" arrivalPos="55.39" arrivalSpeed="19.30" duration="17.00" routeLength="230.27" waitingTime="0.00" waitingCount="0" stopTime="0.00" timeLoss="4.77" rerouteNo="0" devices="tripinfo_a1_1.8" vType="myType" speedFactor="0.97" vaporized=""/>
    <tripinfo id="b1.6" depart="22.00" departLane="C1_1" departPos="4.60" departSpeed="0.00" departDelay="0.40" arrival="41.00" arrivalLane="Z2_0" arrivalPos="55.39" arrivalSpeed="19.18" duration="19.00" routeLength="203.85" waitingTime="0.00" waitingCount="0" stopTime="0.00" timeLoss="7.56" rerouteNo="0" devices="tripinfo_b1.6" vType="myType" speedFactor="1.04" vaporized=""/>
    <tripinfo id="b2.7" depart="26.00" departLane="C1_0" departPos="4.60" departSpeed="0.00" departDelay="0.80" arrival="43.00" arrivalLane="C2_0" arrivalPos="42.50" arrivalSpeed="12.41" duration="17.00" routeLength="190.96" waitingTime="0.00" waitingCount="0" stopTime="0.00" timeLoss="4.78" rerouteNo="0" devices="tripinfo_b2.7" vType="myType" speedFactor="0.96" vaporized=""/>
    <tripinfo id="a1.9" depart="27.00" departLane="Z1_1" departPos="4.60" departSpeed="0.00" departDelay="18.00" arrival="44.00" arrivalLane="Z2_1" arrivalPos="55.39" arrivalSpeed="19.34" duration="17.00" routeLength="230.27" waitingTime="0.00" waitingCount="0" stopTime="0.00" timeLoss="5.12" rerouteNo="0" devices="tripinfo_a1.9" vType="myType" speedFactor="1.08" vaporized=""/>
    <tripinfo id="a1_1.9" depart="27.00" departLane="Z1_2" departPos="4.60" departSpeed="0.00" departDelay="18.90" arrival="44.00" arrivalLane="Z2_2" arrivalPos="55.39" arrivalSpeed="19.28" duration="17.00" routeLength="230.27" waitingTime="0.00" waitingCount="0" stopTime="0.00" timeLoss="4.80" rerouteNo="0" devices="tripinfo_a1_1.9" vType="myType" speedFactor="1.00" vaporized=""/>
    <tripinfo id="a2.7" depart="21.00" departLane="Z1_0" departPos="4.60" departSpeed="0.00" departDelay="12.60" arrival="45.00" arrivalLane="C2_1" arrivalPos="42.50" arrivalSpeed="13.30" duration="24.00" routeLength="217.38" waitingTime="0.00" waitingCount="0" stopTime="0.00" timeLoss="11.10" rerouteNo="0" devices="tripinfo_a2.7" vType="myType" speedFactor="1.00" vaporized=""/>
    <tripinfo id="b2.8" depart="29.00" departLane="C1_0" departPos="4.60" departSpeed="0.00" departDelay="0.20" arrival="46.00" arrivalLane="C2_0" arrivalPos="42.50" arrivalSpeed="14.33" duration="17.00" routeLength="190.96" waitingTime="0.00" waitingCount="0" stopTime="0.00" timeLoss="4.99" rerouteNo="0" devices="tripinfo_b2.8" vType="myType" speedFactor="1.04" vaporized=""/>
    <tripinfo id="a2.8" depart="24.00" departLane="Z1_0" departPos="4.60" departSpeed="0.00" departDelay="14.40" arrival="47.00" arrivalLane="C2_1" arrivalPos="42.50" arrivalSpeed="14.54" duration="23.00" routeLength="217.38" waitingTime="0.00" waitingCount="0" stopTime="0.00" timeLoss="10.69" rerouteNo="0" devices="tripinfo_a2.8" vType="myType" speedFactor="1.09" vaporized=""/>
    <tripinfo id="a2.9" depart="27.00" departLane="Z1_0" departPos="4.60" departSpeed="0.00" departDelay="16.20" arrival="49.00" arrivalLane="C2_1" arrivalPos="42.50" arrivalSpeed="13.46" duration="22.00" routeLength="217.38" waitingTime="0.00" waitingCount="0" stopTime="0.00" timeLoss="9.79" rerouteNo="0" devices="tripinfo_a2.9" vType="myType" speedFactor="1.02" vaporized=""/>
    <tripinfo id="a1_1.10" depart="30.00" departLane="Z1_2" departPos="4.60" departSpeed="0.00" departDelay="21.00" arrival="50.00" arrivalLane="Z2_2" arrivalPos="55.39" arrivalSpeed="18.83" duration="20.00" routeLength="230.27" waitingTime="0.00" waitingCount="0" stopTime="0.00" timeLoss="7.58" rerouteNo="0" devices="tripinfo_a1_1.10" vType="myType" speedFactor="1.09" vaporized=""/>
    <tripinfo id="a1.10" depart="30.00" departLane="Z1_1" departPos="4.60" departSpeed="0.00" departDelay="20.00" arrival="50.00" arrivalLane="Z2_1" arrivalPos="55.39" arrivalSpeed="19.22" duration="20.00" routeLength="230.27" waitingTime="0.00" waitingCount="0" stopTime="0.00" timeLoss="7.96" rerouteNo="0" devices="tripinfo_a1.10" vType="myType" speedFactor="1.01" vaporized=""/>
    <tripinfo id="b1.7" depart="26.00" departLane="C1_1" departPos="4.60" departSpeed="0.00" departDelay="0.80" arrival="51.00" arrivalLane="Z2_0" arrivalPos="55.39" arrivalSpeed="19.20" duration="25.00" routeLength="203.85" waitingTime="0.00" waitingCount="0" stopTime="0.00" timeLoss="12.79" rerouteNo="0" devices="tripinfo_b1.7" vType="myType" speedFactor="0.92" vaporized=""/>
    <tripinfo id="a2.10" depart="30.00" departLane="Z1_0" departPos="4.60" departSpeed="0.00" departDelay="18.00" arrival="52.00" arrivalLane="C2_1" arrivalPos="42.50" arrivalSpeed="14.43" duration="22.00" routeLength="217.38" waitingTime="0.00" waitingCount="0" stopTime="0.00" timeLoss="9.53" rerouteNo="0" devices="tripinfo_a2.10" vType="myType" speedFactor="1.04" vaporized=""/>
    <tripinfo id="a1.11" depart="33.00" departLane="Z1_1" departPos="4.60" departSpeed="0.00" departDelay="22.00" arrival="54.00" arrivalLane="Z2_1" arrivalPos="55.39" arrivalSpeed="18.88" duration="21.00" routeLength="230.27" waitingTime="0.00" waitingCount="0" stopTime="0.00" timeLoss="9.00" rerouteNo="0" devices="tripinfo_a1.11" vType="myType" speedFactor="1.05" vaporized=""/>
    <tripinfo id="a1_1.11" depart="33.00" departLane="Z1_2" departPos="4.60" departSpeed="0.00" departDelay="23.10" arrival="55.00" arrivalLane="Z2_2" arrivalPos="55.39" arrivalSpeed="19.69" duration="22.00" routeLength="230.27" waitingTime="0.00" waitingCount="0" stopTime="0.00" timeLoss="9.65" rerouteNo="0" devices="tripinfo_a1_1.11" vType="myType" speedFactor="0.99" vaporized=""/>
    <tripinfo id="a2.11" depart="33.00" departLane="Z1_0" departPos="4.60" departSpeed="0.00" departDelay="19.80" arrival="55.00" arrivalLane="C2_1" arrivalPos="42.50" arrivalSpeed="11.75" duration="22.00" routeLength="217.38" waitingTime="0.00" waitingCount="0" stopTime="0.00" timeLoss="8.99" rerouteNo="0" devices="tripinfo_a2.11" vType="myType" speedFactor="0.93" vaporized=""/>
    <tripinfo id="a1.12" depart="36.00" departLane="Z1_1" departPos="4.60" departSpeed="0.00" departDelay="24.00" arrival="56.00" arrivalLane="Z2_1" arrivalPos="55.39" arrivalSpeed="18.93" duration="20.00" routeLength="230.27" waitingTime="0.00" waitingCount="0" stopTime="0.00" timeLoss="7.87" rerouteNo="0" devices="tripinfo_a1.12" vType="myType" speedFactor="1.02" vaporized=""/>
    <tripinfo id="a1_1.12" depart="36.00" departLane="Z1_2" departPos="4.60" departSpeed="0.00" departDelay="25.20" arrival="57.00" arrivalLane="Z2_2" arrivalPos="55.39" arrivalSpeed="18.98" duration="21.00" routeLength="230.27" waitingTime="0.00" waitingCount="0" stopTime="0.00" timeLoss="8.61" rerouteNo="0" devices="tripinfo_a1_1.12" vType="myType" speedFactor="0.95" vaporized=""/>
    <tripinfo id="a2.12" depart="35.00" departLane="Z1_0" departPos="4.60" departSpeed="0.00" departDelay="20.60" arrival="57.00" arrivalLane="C2_1" arrivalPos="42.50" arrivalSpeed="13.52" duration="22.00" routeLength="217.38" waitingTime="0.00" waitingCount="0" stopTime="0.00" timeLoss="9.48" rerouteNo="0" devices="tripinfo_a2.12" vType="myType" speedFactor="1.05" vaporized=""/>
    <tripinfo id="b1.8" depart="29.00" departLane="C1_1" departPos="4.60" departSpeed="0.00" departDelay="0.20" arrival="57.00" arrivalLane="Z2_0" arrivalPos="55.39" arrivalSpeed="19.38" duration="28.00" routeLength="203.85" waitingTime="5.00" waitingCount="1" stopTime="0.00" timeLoss="16.55" rerouteNo="0" devices="tripinfo_b1.8" vType="myType" speedFactor="0.95" vaporized=""/>
    <tripinfo id="a1_1.13" depart="39.00" departLane="Z1_2" departPos="4.60" departSpeed="0.00" departDelay="27.30" arrival="58.00" arrivalLane="Z2_2" arrivalPos="55.39" arrivalSpeed="19.00" duration="19.00" routeLength="230.27" waitingTime="0.00" waitingCount="0" stopTime="0.00" timeLoss="7.48" rerouteNo="0" devices="tripinfo_a1_1.13" vType="myType" speedFactor="1.02" vaporized=""/>
    <tripinfo id="a1.13" depart="39.00" departLane="Z1_1" departPos="4.60" departSpeed="0.00" departDelay="26.00" arrival="58.00" arrivalLane="Z2_1" arrivalPos="55.39" arrivalSpeed="19.88" duration="19.00" routeLength="230.27" waitingTime="0.00" waitingCount="0" stopTime="0.00" timeLoss="6.88" rerouteNo="0" devices="tripinfo_a1.13" vType="myType" speedFactor="1.00" vaporized=""/>
    <tripinfo id="b2.9" depart="33.00" departLane="C1_0" departPos="4.60" departSpeed="0.00" departDelay="0.60" arrival="58.00" arrivalLane="C2_0" arrivalPos="42.50" arrivalSpeed="12.60" duration="25.00" routeLength="190.96" waitingTime="3.00" waitingCount="1" stopTime="0.00" timeLoss="12.42" rerouteNo="0" devices="tripinfo_b2.9" vType="myType" speedFactor="1.00" vaporized=""/>
    <tripinfo id="a1_1.14" depart="42.00" departLane="Z1_2" departPos="4.60" departSpeed="0.00" departDelay="29.40" arrival="60.00" arrivalLane="Z2_2" arrivalPos="55.39" arrivalSpeed="19.68" duration="18.00" routeLength="230.27" waitingTime="0.00" waitingCount="0" stopTime="0.00" timeLoss="6.41" rerouteNo="0" devices="tripinfo_a1_1.14" vType="myType" speedFactor="0.95" vaporized=""/>
    <tripinfo id="a1.14" depart="42.00" departLane="Z1_1" departPos="4.60" departSpeed="0.00" departDelay="28.00" arrival="60.00" arrivalLane="Z2_1" arrivalPos="55.39" arrivalSpeed="19.12" duration="18.00" routeLength="230.27" waitingTime="0.00" waitingCount="0" stopTime="0.00" timeLoss="6.07" rerouteNo="0" devices="tripinfo_a1.14" vType="myType" speedFactor="0.94" vaporized=""/>
    <tripinfo id="b1.9" depart="33.00" departLane="C1_1" departPos="4.60" departSpeed="0.00" departDelay="0.60" arrival="60.00" arrivalLane="Z2_0" arrivalPos="55.39" arrivalSpeed="19.45" duration="27.00" routeLength="203.85" waitingTime="0.00" waitingCount="0" stopTime="0.00" timeLoss="15.33" rerouteNo="0" devices="tripinfo_b1.9" vType="myType" speedFactor="1.00" vaporized=""/>
    <tripinfo id="b2.10" depart="36.00" departLane="C1_0" departPos="4.60" departSpeed="0.00" departDelay="0.00" arrival="60.00" arrivalLane="C2_0" arrivalPos="42.50" arrivalSpeed="14.03" duration="24.00" routeLength="190.96" waitingTime="0.00" waitingCount="0" stopTime="0.00" timeLoss="11.91" rerouteNo="0" devices="tripinfo_b2.10" vType="myType" speedFactor="1.02" vaporized=""/>
    <tripinfo id="a1_1.15" depart="45.00" departLane="Z1_2" departPos="4.60" departSpeed="0.00" departDelay="31.50" arrival="62.00" arrivalLane="Z2_2" arrivalPos="55.39" arrivalSpeed="19.66" duration="17.00" routeLength="230.27" waitingTime="0.00" waitingCount="0" stopTime="0.00" timeLoss="5.30" rerouteNo="0" devices="tripinfo_a1_1.15" vType="myType" speedFactor="0.93" vaporized=""/>
    <tripinfo id="a1.15" depart="45.00" departLane="Z1_1" departPos="4.60" departSpeed="0.00" departDelay="30.00" arrival="62.00" arrivalLane="Z2_1" arrivalPos="55.39" arrivalSpeed="19.18" duration="17.00" routeLength="230.27" waitingTime="0.00" waitingCount="0" stopTime="0.00" timeLoss="5.24" rerouteNo="0" devices="tripinfo_a1.15" vType="myType" speedFactor="1.08" vaporized=""/>
    <tripinfo id="b1.10" depart="36.00" departLane="C1_1" departPos="4.60" departSpeed="0.00" departDelay="0.00" arrival="62.00" arrivalLane="Z2_0" arrivalPos="55.39" arrivalSpeed="19.84" duration="26.00" routeLength="203.85" waitingTime="0.00" waitingCount="0" stopTime="0.00" timeLoss="14.44" rerouteNo="0" devices="tripinfo_b1.10" vType="myType" speedFactor="1.00" vaporized=""/>
    <tripinfo id="b2.11" depart="40.00" departLane="C1_0" departPos="4.60" departSpeed="0.00" departDelay="0.40" arrival="62.00" arrivalLane="C2_0" arrivalPos="42.50" arrivalSpeed="14.04" duration="22.00" routeLength="190.96" waitingTime="0.00" waitingCount="0" stopTime="0.00" timeLoss="10.33" rerouteNo="0" devices="tripinfo_b2.11" vType="myType" speedFactor="1.06" vaporized=""/>
    <tripinfo id="a1.16" depart="48.00" departLane="Z1_1" departPos="4.60" departSpeed="0.00" departDelay="32.00" arrival="64.00" arrivalLane="Z2_1" arrivalPos="55.39" arrivalSpeed="19.70" duration="16.00" routeLength="230.27" waitingTime="0.00" waitingCount="0" stopTime="0.00" timeLoss="4.36" rerouteNo="0" devices="tripinfo_a1.16" vType="myType" speedFactor="0.95" vaporized=""/>
    <tripinfo id="b2.12" depart="44.00" departLane="C1_0" departPos="4.60" departSpeed="0.00" departDelay="0.80" arrival="64.00" arrivalLane="C2_0" arrivalPos="42.50" arrivalSpeed="14.71" duration="20.00" routeLength="190.96" waitingTime="0.00" waitingCount="0" stopTime="0.00" timeLoss="8.51" rerouteNo="0" devices="tripinfo_b2.12" vType="myType" speedFactor="1.09" vaporized=""/>
    <tripinfo id="a1_1.16" depart="48.00" departLane="Z1_2" departPos="4.60" departSpeed="0.00" departDelay="33.60" arrival="65.00" arrivalLane="Z2_2" arrivalPos="55.39" arrivalSpeed="18.97" duration="17.00" routeLength="230.27" waitingTime="0.00" waitingCount="0" stopTime="0.00" timeLoss="4.69" rerouteNo="0" devices="tripinfo_a1_1.16" vType="myType" speedFactor="1.01" vaporized=""/>
    <tripinfo id="a2.13" depart="39.00" departLane="Z1_0" departPos="4.60" departSpeed="0.00" departDelay="23.40" arrival="65.00" arrivalLane="C2_1" arrivalPos="42.50" arrivalSpeed="12.87" duration="26.00" routeLength="217.38" waitingTime="0.00" waitingCount="0" stopTime="0.00" timeLoss="13.13" rerouteNo="0" devices="tripinfo_a2.13" vType="myType" speedFactor="1.01" vaporized=""/>
    <tripinfo id="b2.13" depart="47.00" departLane="C1_0" departPos="4.60" departSpeed="0.00" departDelay="0.20" arrival="66.00" arrivalLane="C2_0" arrivalPos="42.50" arrivalSpeed="13.19" duration="19.00" routeLength="190.96" waitingTime="0.00" waitingCount="0" stopTime="0.00" timeLoss="7.04" rerouteNo="0" devices="tripinfo_b2.13" vType="myType" speedFactor="0.99" vaporized=""/>
    <tripinfo id="a2.14" depart="42.00" departLane="Z1_0" departPos="4.60" departSpeed="0.00" departDelay="25.20" arrival="67.00" arrivalLane="C2_1" arrivalPos="42.50" arrivalSpeed="14.50" duration="25.00" routeLength="217.38" waitingTime="0.00" waitingCount="0" stopTime="0.00" timeLoss="12.53" rerouteNo="0" devices="tripinfo_a2.14" vType="myType" speedFactor="1.06" vaporized=""/>
    <tripinfo id="a1_1.17" depart="51.00" departLane="Z1_2" departPos="4.60" departSpeed="0.00" departDelay="35.70" arrival="68.00" arrivalLane="Z2_2" arrivalPos="55.39" arrivalSpeed="19.43" duration="17.00" routeLength="230.27" waitingTime="0.00" waitingCount="0" stopTime="0.00" timeLoss="4.77" rerouteNo="0" devices="tripinfo_a1_1.17" vType="myType" speedFactor="1.07" vaporized=""/>