<?xml version="1.0" encoding="UTF-8"?>

<!-- generated on 11/05/21 17:05:48 by Eclipse SUMO GUI Version 1.8.0
<configuration xmlns:xsi="http://www.w3.org/2001/XMLSchema-instance" xsi:noNamespaceSchemaLocation="http://sumo.dlr.de/xsd/sumoConfiguration.xsd">

    <input>
        <net-file value="F:\software%20two\sumo-1.8.0/file1/test1.net.xml"/>
        <route-files value="F:\software%20two\sumo-1.8.0/file1/routes.rou.xml"/>
    </input>

    <output>
        <tripinfo-output value="F:\sumo_pro/traci_main/main/tripinfo2_TEST.xml"/>
    </output>

    <time>
        <begin value="0"/>
        <end value="2000"/>
    </time>

    <report>
        <verbose value="true"/>
        <duration-log.statistics value="true"/>
    </report>

    <traci_server>
        <remote-port value="63191"/>
    </traci_server>

    <gui_only>
        <gui-settings-file value="F:\software%20two\sumo-1.8.0/file1/gui-settings.cfg"/>
        <quit-on-end value="true"/>
        <start value="true"/>
    </gui_only>

</configuration>
-->

<tripinfos xmlns:xsi="http://www.w3.org/2001/XMLSchema-instance" xsi:noNamespaceSchemaLocation="http://sumo.dlr.de/xsd/tripinfo_file.xsd">
    <tripinfo id="b1.0" depart="0.00" departLane="C1_1" departPos="4.60" departSpeed="0.00" departDelay="0.00" arrival="15.00" arrivalLane="Z2_0" arrivalPos="55.39" arrivalSpeed="19.00" duration="15.00" routeLength="203.85" waitingTime="0.00" waitingCount="0" stopTime="0.00" timeLoss="3.70" rerouteNo="0" devices="tripinfo_b1.0" vType="myType" speedFactor="1.04" vaporized=""/>
    <tripinfo id="b2.0" depart="0.00" departLane="C1_0" departPos="4.60" departSpeed="0.00" departDelay="0.00" arrival="16.00" arrivalLane="C2_0" arrivalPos="42.50" arrivalSpeed="13.59" duration="16.00" routeLength="190.96" waitingTime="0.00" waitingCount="0" stopTime="0.00" timeLoss="4.44" rerouteNo="0" devices="tripinfo_b2.0" vType="myType" speedFactor="1.02" vaporized=""/>
    <tripinfo id="a1.0" depart="0.00" departLane="Z1_1" departPos="4.60" departSpeed="0.00" departDelay="0.00" arrival="17.00" arrivalLane="Z2_1" arrivalPos="55.39" arrivalSpeed="18.85" duration="17.00" routeLength="230.27" waitingTime="0.00" waitingCount="0" stopTime="0.00" timeLoss="5.13" rerouteNo="0" devices="tripinfo_a1.0" vType="myType" speedFactor="1.03" vaporized=""/>
    <tripinfo id="a1_1.0" depart="0.00" departLane="Z1_2" departPos="4.60" departSpeed="0.00" departDelay="0.00" arrival="17.00" arrivalLane="Z2_2" arrivalPos="55.39" arrivalSpeed="18.93" duration="17.00" routeLength="230.27" waitingTime="0.00" waitingCount="0" stopTime="0.00" timeLoss="5.09" rerouteNo="0" devices="tripinfo_a1_1.0" vType="myType" speedFactor="0.97" vaporized=""/>
    <tripinfo id="a2.0" depart="0.00" departLane="Z1_0" departPos="4.60" departSpeed="0.00" departDelay="0.00" arrival="18.00" arrivalLane="C2_1" arrivalPos="42.50" arrivalSpeed="13.81" duration="18.00" routeLength="217.38" waitingTime="0.00" waitingCount="0" stopTime="0.00" timeLoss="5.47" rerouteNo="0" devices="tripinfo_a2.0" vType="myType" speedFactor="1.01" vaporized=""/>
    <tripinfo id="a1_1.1" depart="3.00" departLane="Z1_2" departPos="4.60" departSpeed="0.00" departDelay="2.10" arrival="19.00" arrivalLane="Z2_2" arrivalPos="55.39" arrivalSpeed="18.84" duration="16.00" routeLength="230.27" waitingTime="0.00" waitingCount="0" stopTime="0.00" timeLoss="4.47" rerouteNo="0" devices="tripinfo_a1_1.1" vType="myType" speedFactor="1.02" vaporized=""/>
    <tripinfo id="a1.1" depart="3.00" departLane="Z1_1" departPos="4.60" departSpeed="0.00" departDelay="2.00" arrival="20.00" arrivalLane="Z2_1" arrivalPos="55.39" arrivalSpeed="19.92" duration="17.00" routeLength="230.27" waitingTime="0.00" waitingCount="0" stopTime="0.00" timeLoss="4.86" rerouteNo="0" devices="tripinfo_a1.1" vType="myType" speedFactor="0.92" vaporized=""/>
    <tripinfo id="b2.1" depart="4.00" departLane="C1_0" departPos="4.60" departSpeed="0.00" departDelay="0.40" arrival="20.00" arrivalLane="C2_0" arrivalPos="42.50" arrivalSpeed="12.97" duration="16.00" routeLength="190.96" waitingTime="0.00" waitingCount="0" stopTime="0.00" timeLoss="4.06" rerouteNo="0" devices="tripinfo_b2.1" vType="myType" speedFactor="0.97" vaporized=""/>
    <tripinfo id="a2.1" depart="2.00" departLane="Z1_0" departPos="4.60" departSpeed="0.00" departDelay="0.80" arrival="21.00" arrivalLane="C2_1" arrivalPos="42.50" arrivalSpeed="12.39" duration="19.00" routeLength="217.38" waitingTime="0.00" waitingCount="0" stopTime="0.00" timeLoss="6.46" rerouteNo="0" devices="tripinfo_a2.1" vType="myType" speedFactor="0.93" vaporized=""/>
    <tripinfo id="b1.1" depart="4.00" departLane="C1_1" departPos="4.60" departSpeed="0.00" departDelay="0.40" arrival="21.00" arrivalLane="Z2_0" arrivalPos="55.39" arrivalSpeed="19.93" duration="17.00" routeLength="203.85" waitingTime="0.00" waitingCount="0" stopTime="0.00" timeLoss="5.47" rerouteNo="0" devices="tripinfo_b1.1" vType="myType" speedFactor="0.94" vaporized=""/>
    <tripinfo id="a1.2" depart="6.00" departLane="Z1_1" departPos="4.60" departSpeed="0.00" departDelay="4.00" arrival="22.00" arrivalLane="Z2_1" arrivalPos="55.39" arrivalSpeed="19.60" duration="16.00" routeLength="230.27" waitingTime="0.00" waitingCount="0" stopTime="0.00" timeLoss="4.27" rerouteNo="0" devices="tripinfo_a1.2" vType="myType" speedFactor="0.94" vaporized=""/>
</tripinfos>
