<?xml version="1.0" encoding="UTF-8"?>

<!-- generated on 2021-11-09 16:08:10 by Eclipse SUMO GUI Version 1.10.0
<configuration xmlns:xsi="http://www.w3.org/2001/XMLSchema-instance" xsi:noNamespaceSchemaLocation="http://sumo.dlr.de/xsd/sumoConfiguration.xsd">

    <input>
        <net-file value="F:\sumo_pro/traci_main\guangshen\guangshen\guangshen_ALL.net.xml"/>
        <route-files value="F:\sumo_pro/traci_main\guangshen\guangshen\guangshen_ALL.rou.xml"/>
    </input>

    <output>
        <tripinfo-output value="F:\sumo_pro\traci_main\guangshen\guangshen/tripinfo2_TEST.xml"/>
    </output>

    <time>
        <begin value="0"/>
        <end value="20000"/>
    </time>

    <report>
        <verbose value="true"/>
        <duration-log.statistics value="true"/>
    </report>

    <traci_server>
        <remote-port value="63127"/>
    </traci_server>

    <gui_only>
        <gui-settings-file value="F:\sumo_pro/traci_main\guangshen\guangshen\gui-settings2.cfg"/>
        <quit-on-end value="false"/>
        <start value="true"/>
    </gui_only>

</configuration>
-->

<tripinfos xmlns:xsi="http://www.w3.org/2001/XMLSchema-instance" xsi:noNamespaceSchemaLocation="http://sumo.dlr.de/xsd/tripinfo_file.xsd">
    <tripinfo id="xiaokeche_taiping_ru.2" depart="4.00" departLane="TP_ZR1_1" departPos="554.47" departSpeed="0.00" departDelay="0.79" arrival="53.00" arrivalLane="mainlane_16_0" arrivalPos="997.88" arrivalSpeed="32.04" duration="49.00" routeLength="1284.61" waitingTime="0.00" waitingCount="0" stopTime="0.00" timeLoss="6.37" rerouteNo="1" devices="tripinfo_xiaokeche_taiping_ru.2 routing_xiaokeche_taiping_ru.2" vType="xiaokeche" speedFactor="1.04" vaporized=""/>
    <tripinfo id="dakeche_taiping_ru.0" depart="0.00" departLane="TP_ZR1_0" departPos="392.97" departSpeed="0.00" departDelay="0.00" arrival="71.00" arrivalLane="mainlane_16_0" arrivalPos="997.88" arrivalSpeed="27.26" duration="71.00" routeLength="1446.11" waitingTime="0.00" waitingCount="0" stopTime="0.00" timeLoss="10.72" rerouteNo="1" devices="tripinfo_dakeche_taiping_ru.0 routing_dakeche_taiping_ru.0" vType="dakeche" speedFactor="1.00" vaporized=""/>
    <tripinfo id="xiaokeche_taiping_ru.4" depart="7.00" departLane="TP_ZR1_1" departPos="333.45" departSpeed="0.00" departDelay="0.58" arrival="73.00" arrivalLane="mainlane_16_0" arrivalPos="997.88" arrivalSpeed="32.06" duration="66.00" routeLength="1505.63" waitingTime="0.00" waitingCount="0" stopTime="0.00" timeLoss="7.33" rerouteNo="1" devices="tripinfo_xiaokeche_taiping_ru.4 routing_xiaokeche_taiping_ru.4" vType="xiaokeche" speedFactor="1.00" vaporized=""/>
    <tripinfo id="tedaxinghuoche_taiping_ru.0" depart="0.00" departLane="TP_ZR1_0" departPos="364.15" departSpeed="0.00" departDelay="0.00" arrival="76.00" arrivalLane="mainlane_16_0" arrivalPos="997.88" arrivalSpeed="27.53" duration="76.00" routeLength="1474.93" waitingTime="0.00" waitingCount="0" stopTime="0.00" timeLoss="10.59" rerouteNo="1" devices="tripinfo_tedaxinghuoche_taiping_ru.0 routing_tedaxinghuoche_taiping_ru.0" vType="tedaxinghuoche" speedFactor="0.91" vaporized=""/>
    <tripinfo id="zhongxinghuoche_taiping_ru.0" depart="0.00" departLane="TP_ZR1_0" departPos="294.88" departSpeed="0.00" departDelay="0.00" arrival="78.00" arrivalLane="mainlane_16_0" arrivalPos="997.88" arrivalSpeed="27.64" duration="78.00" routeLength="1544.20" waitingTime="0.00" waitingCount="0" stopTime="0.00" timeLoss="9.97" rerouteNo="1" devices="tripinfo_zhongxinghuoche_taiping_ru.0 routing_zhongxinghuoche_taiping_ru.0" vType="zhongxinghuoche" speedFactor="0.99" vaporized=""/>
    <tripinfo id="xiaokeche_taiping_ru.0" depart="0.00" departLane="TP_ZR1_0" departPos="185.08" departSpeed="0.00" departDelay="0.00" arrival="79.00" arrivalLane="mainlane_16_0" arrivalPos="997.88" arrivalSpeed="30.14" duration="79.00" routeLength="1654.00" waitingTime="0.00" waitingCount="0" stopTime="0.00" timeLoss="10.70" rerouteNo="1" devices="tripinfo_xiaokeche_taiping_ru.0 routing_xiaokeche_taiping_ru.0" vType="xiaokeche" speedFactor="1.02" vaporized=""/>
    <tripinfo id="xiaokeche_taiping_ru.1" depart="2.00" departLane="TP_ZR1_1" departPos="173.47" departSpeed="0.00" departDelay="0.39" arrival="81.00" arrivalLane="mainlane_16_0" arrivalPos="997.88" arrivalSpeed="31.79" duration="79.00" routeLength="1665.61" waitingTime="0.00" waitingCount="0" stopTime="0.00" timeLoss="12.26" rerouteNo="1" devices="tripinfo_xiaokeche_taiping_ru.1 routing_xiaokeche_taiping_ru.1" vType="xiaokeche" speedFactor="1.10" vaporized=""/>
    <tripinfo id="xiaokeche_taiping_ru.7" depart="13.00" departLane="TP_ZR1_1" departPos="336.30" departSpeed="0.00" departDelay="1.76" arrival="82.00" arrivalLane="mainlane_16_0" arrivalPos="997.88" arrivalSpeed="30.50" duration="69.00" routeLength="1502.78" waitingTime="0.00" waitingCount="0" stopTime="0.00" timeLoss="6.80" rerouteNo="1" devices="tripinfo_xiaokeche_taiping_ru.7 routing_xiaokeche_taiping_ru.7" vType="xiaokeche" speedFactor="0.94" vaporized=""/>
    <tripinfo id="xiaokeche_taiping_ru.9" depart="15.00" departLane="TP_ZR1_1" departPos="283.22" departSpeed="0.00" departDelay="0.55" arrival="86.00" arrivalLane="mainlane_16_0" arrivalPos="997.88" arrivalSpeed="31.43" duration="71.00" routeLength="1555.86" waitingTime="0.00" waitingCount="0" stopTime="0.00" timeLoss="6.59" rerouteNo="1" devices="tripinfo_xiaokeche_taiping_ru.9 routing_xiaokeche_taiping_ru.9" vType="xiaokeche" speedFactor="0.98" vaporized=""/>
    <tripinfo id="xiaokeche_taiping_ru.5" depart="9.00" departLane="TP_ZR1_1" departPos="180.42" departSpeed="0.00" departDelay="0.97" arrival="87.00" arrivalLane="mainlane_16_0" arrivalPos="997.88" arrivalSpeed="33.24" duration="78.00" routeLength="1658.66" waitingTime="0.00" waitingCount="0" stopTime="0.00" timeLoss="8.78" rerouteNo="1" devices="tripinfo_xiaokeche_taiping_ru.5 routing_xiaokeche_taiping_ru.5" vType="xiaokeche" speedFactor="1.02" vaporized=""/>
    <tripinfo id="xiaokeche_taiping_ru.10" depart="17.00" departLane="TP_ZR1_1" departPos="402.10" departSpeed="0.00" departDelay="0.94" arrival="88.00" arrivalLane="mainlane_16_0" arrivalPos="997.88" arrivalSpeed="26.59" duration="71.00" routeLength="1436.98" waitingTime="0.00" waitingCount="0" stopTime="0.00" timeLoss="6.75" rerouteNo="1" devices="tripinfo_xiaokeche_taiping_ru.10 routing_xiaokeche_taiping_ru.10" vType="xiaokeche" speedFactor="0.83" vaporized=""/>
    <tripinfo id="daxinghuoche_taiping_ru.0" depart="0.00" departLane="TP_ZR1_0" departPos="176.52" departSpeed="0.00" departDelay="0.00" arrival="90.00" arrivalLane="mainlane_16_0" arrivalPos="997.88" arrivalSpeed="27.32" duration="90.00" routeLength="1662.56" waitingTime="0.00" waitingCount="0" stopTime="0.00" timeLoss="11.17" rerouteNo="1" devices="tripinfo_daxinghuoche_taiping_ru.0 routing_daxinghuoche_taiping_ru.0" vType="daxinghuoche" speedFactor="0.94" vaporized=""/>
    <tripinfo id="xiaokeche_taiping_ru.8" depart="13.00" departLane="TP_ZR1_1" departPos="239.81" departSpeed="0.00" departDelay="0.15" arrival="91.00" arrivalLane="mainlane_16_0" arrivalPos="997.88" arrivalSpeed="28.11" duration="78.00" routeLength="1599.27" waitingTime="0.00" waitingCount="0" stopTime="0.00" timeLoss="11.70" rerouteNo="1" devices="tripinfo_xiaokeche_taiping_ru.8 routing_xiaokeche_taiping_ru.8" vType="xiaokeche" speedFactor="0.98" vaporized=""/>
    <tripinfo id="xiaokeche_taiping_ru.12" depart="20.00" departLane="TP_ZR1_1" departPos="224.57" departSpeed="0.00" departDelay="0.73" arrival="93.00" arrivalLane="mainlane_16_0" arrivalPos="997.88" arrivalSpeed="33.10" duration="73.00" routeLength="1614.51" waitingTime="0.00" waitingCount="0" stopTime="0.00" timeLoss="9.04" rerouteNo="1" devices="tripinfo_xiaokeche_taiping_ru.12 routing_xiaokeche_taiping_ru.12" vType="xiaokeche" speedFactor="1.07" vaporized=""/>
    <tripinfo id="xiaokeche_taiping_ru.11" depart="18.00" departLane="TP_ZR1_1" departPos="161.65" departSpeed="0.00" departDelay="0.33" arrival="95.00" arrivalLane="mainlane_16_0" arrivalPos="997.88" arrivalSpeed="32.61" duration="77.00" routeLength="1677.43" waitingTime="0.00" waitingCount="0" stopTime="0.00" timeLoss="7.90" rerouteNo="1" devices="tripinfo_xiaokeche_taiping_ru.11 routing_xiaokeche_taiping_ru.11" vType="xiaokeche" speedFactor="1.06" vaporized=""/>
    <tripinfo id="xiaoxinghuoche_taiping_ru.1" depart="25.00" departLane="TP_ZR1_0" departPos="378.61" departSpeed="0.00" departDelay="0.51" arrival="95.00" arrivalLane="mainlane_16_0" arrivalPos="997.88" arrivalSpeed="27.55" duration="70.00" routeLength="1460.47" waitingTime="0.00" waitingCount="0" stopTime="0.00" timeLoss="10.58" rerouteNo="1" devices="tripinfo_xiaoxinghuoche_taiping_ru.1 routing_xiaoxinghuoche_taiping_ru.1" vType="xiaoxinghuoche" speedFactor="1.08" vaporized=""/>
    <tripinfo id="xiaokeche_taiping_ru.18" depart="34.00" departLane="TP_ZR1_1" departPos="426.01" departSpeed="0.00" departDelay="5.09" arrival="97.00" arrivalLane="mainlane_16_0" arrivalPos="997.88" arrivalSpeed="31.76" duration="63.00" routeLength="1413.07" waitingTime="0.00" waitingCount="0" stopTime="0.00" timeLoss="7.82" rerouteNo="1" devices="tripinfo_xiaokeche_taiping_ru.18 routing_xiaokeche_taiping_ru.18" vType="xiaokeche" speedFactor="0.95" vaporized=""/>
    <tripinfo id="xiaokeche_taiping_ru.6" depart="11.00" departLane="TP_ZR1_1" departPos="202.26" departSpeed="0.00" departDelay="1.36" arrival="98.00" arrivalLane="mainlane_16_0" arrivalPos="997.88" arrivalSpeed="30.35" duration="87.00" routeLength="1636.82" waitingTime="0.00" waitingCount="0" stopTime="0.00" timeLoss="12.45" rerouteNo="1" devices="tripinfo_xiaokeche_taiping_ru.6 routing_xiaokeche_taiping_ru.6" vType="xiaokeche" speedFactor="0.91" vaporized=""/>
    <tripinfo id="xiaokeche_taiping_ru.13" depart="22.00" departLane="TP_ZR1_1" departPos="159.40" departSpeed="0.00" departDelay="1.12" arrival="100.00" arrivalLane="mainlane_16_0" arrivalPos="997.88" arrivalSpeed="32.28" duration="78.00" routeLength="1679.68" waitingTime="0.00" waitingCount="0" stopTime="0.00" timeLoss="7.61" rerouteNo="1" devices="tripinfo_xiaokeche_taiping_ru.13 routing_xiaokeche_taiping_ru.13" vType="xiaokeche" speedFactor="1.03" vaporized=""/>
    <tripinfo id="xiaoxinghuoche_taiping_ru.0" depart="0.00" departLane="TP_ZR1_0" departPos="26.56" departSpeed="0.00" departDelay="0.00" arrival="102.00" arrivalLane="mainlane_16_0" arrivalPos="997.88" arrivalSpeed="27.22" duration="102.00" routeLength="1812.52" waitingTime="0.00" waitingCount="0" stopTime="0.00" timeLoss="15.36" rerouteNo="1" devices="tripinfo_xiaoxinghuoche_taiping_ru.0 routing_xiaoxinghuoche_taiping_ru.0" vType="xiaoxinghuoche" speedFactor="1.01" vaporized=""/>
    <tripinfo id="xiaokeche_taiping_ru.3" depart="5.00" departLane="TP_ZR1_1" departPos="51.17" departSpeed="0.00" departDelay="0.18" arrival="105.00" arrivalLane="mainlane_16_0" arrivalPos="997.88" arrivalSpeed="27.34" duration="100.00" routeLength="1787.91" waitingTime="0.00" waitingCount="0" stopTime="0.00" timeLoss="7.46" rerouteNo="1" devices="tripinfo_xiaokeche_taiping_ru.3 routing_xiaokeche_taiping_ru.3" vType="xiaokeche" speedFactor="0.85" vaporized=""/>
    <tripinfo id="xiaokeche_taiping_ru.24" depart="40.00" departLane="TP_ZR1_1" departPos="313.10" departSpeed="0.00" departDelay="1.46" arrival="107.00" arrivalLane="mainlane_16_1" arrivalPos="997.88" arrivalSpeed="32.09" duration="67.00" routeLength="1525.98" waitingTime="0.00" waitingCount="0" stopTime="0.00" timeLoss="9.22" rerouteNo="1" devices="tripinfo_xiaokeche_taiping_ru.24 routing_xiaokeche_taiping_ru.24" vType="xiaokeche" speedFactor="1.08" vaporized=""/>
    <tripinfo id="xiaokeche_taiping_ru.33" depart="53.00" departLane="TP_ZR1_1" departPos="517.75" departSpeed="0.00" departDelay="0.00" arrival="107.00" arrivalLane="mainlane_16_0" arrivalPos="997.88" arrivalSpeed="31.88" duration="54.00" routeLength="1321.33" waitingTime="0.00" waitingCount="0" stopTime="0.00" timeLoss="8.51" rerouteNo="1" devices="tripinfo_xiaokeche_taiping_ru.33 routing_xiaokeche_taiping_ru.33" vType="xiaokeche" speedFactor="1.01" vaporized=""/>
    <tripinfo id="xiaokeche_taiping_ru.26" depart="42.00" departLane="TP_ZR1_1" departPos="375.42" departSpeed="0.00" departDelay="0.24" arrival="108.00" arrivalLane="mainlane_16_0" arrivalPos="997.88" arrivalSpeed="31.45" duration="66.00" routeLength="1463.66" waitingTime="0.00" waitingCount="0" stopTime="0.00" timeLoss="7.34" rerouteNo="1" devices="tripinfo_xiaokeche_taiping_ru.26 routing_xiaokeche_taiping_ru.26" vType="xiaokeche" speedFactor="0.95" vaporized=""/>
    <tripinfo id="xiaokeche_taiping_ru.25" depart="41.00" departLane="TP_ZR1_1" departPos="275.35" departSpeed="0.00" departDelay="0.85" arrival="109.00" arrivalLane="mainlane_16_1" arrivalPos="997.88" arrivalSpeed="33.31" duration="68.00" routeLength="1563.73" waitingTime="0.00" waitingCount="0" stopTime="0.00" timeLoss="7.28" rerouteNo="1" devices="tripinfo_xiaokeche_taiping_ru.25 routing_xiaokeche_taiping_ru.25" vType="xiaokeche" speedFactor="1.07" vaporized=""/>
    <tripinfo id="xiaokeche_taiping_ru.22" depart="39.00" departLane="TP_ZR1_1" departPos="330.83" departSpeed="0.00" departDelay="3.67" arrival="110.00" arrivalLane="mainlane_16_0" arrivalPos="997.88" arrivalSpeed="30.25" duration="71.00" routeLength="1508.25" waitingTime="0.00" waitingCount="0" stopTime="0.00" timeLoss="8.07" rerouteNo="1" devices="tripinfo_xiaokeche_taiping_ru.22 routing_xiaokeche_taiping_ru.22" vType="xiaokeche" speedFactor="0.94" vaporized=""/>
    <tripinfo id="xiaokeche_taiping_ru.14" depart="29.00" departLane="TP_ZR1_1" departPos="185.92" departSpeed="0.00" departDelay="6.52" arrival="111.00" arrivalLane="mainlane_16_0" arrivalPos="997.88" arrivalSpeed="29.53" duration="82.00" routeLength="1653.16" waitingTime="0.00" waitingCount="0" stopTime="0.00" timeLoss="7.12" rerouteNo="1" devices="tripinfo_xiaokeche_taiping_ru.14 routing_xiaokeche_taiping_ru.14" vType="xiaokeche" speedFactor="0.92" vaporized=""/>
    <tripinfo id="xiaokeche_taiping_ru.17" depart="31.00" departLane="TP_ZR1_1" departPos="112.29" departSpeed="0.00" departDelay="3.70" arrival="113.00" arrivalLane="mainlane_16_0" arrivalPos="997.88" arrivalSpeed="32.32" duration="82.00" routeLength="1726.79" waitingTime="0.00" waitingCount="0" stopTime="0.00" timeLoss="7.91" rerouteNo="1" devices="tripinfo_xiaokeche_taiping_ru.17 routing_xiaokeche_taiping_ru.17" vType="xiaokeche" speedFactor="1.02" vaporized=""/>
    <tripinfo id="xiaokeche_taiping_ru.15" depart="30.00" departLane="TP_ZR1_1" departPos="74.44" departSpeed="0.00" departDelay="5.91" arrival="115.00" arrivalLane="mainlane_16_0" arrivalPos="997.88" arrivalSpeed="32.06" duration="85.00" routeLength="1764.64" waitingTime="0.00" waitingCount="0" stopTime="0.00" timeLoss="10.13" rerouteNo="1" devices="tripinfo_xiaokeche_taiping_ru.15 routing_xiaokeche_taiping_ru.15" vType="xiaokeche" speedFactor="1.06" vaporized=""/>
    <tripinfo id="daxinghuoche_taiping_ru.1" depart="21.00" departLane="TP_ZR1_0" departPos="88.28" departSpeed="0.00" departDelay="0.89" arrival="116.00" arrivalLane="mainlane_16_0" arrivalPos="997.88" arrivalSpeed="27.16" duration="95.00" routeLength="1750.80" waitingTime="0.00" waitingCount="0" stopTime="0.00" timeLoss="14.07" rerouteNo="1" devices="tripinfo_daxinghuoche_taiping_ru.1 routing_daxinghuoche_taiping_ru.1" vType="daxinghuoche" speedFactor="1.03" vaporized=""/>
    <tripinfo id="xiaokeche_taiping_ru.16" depart="31.00" departLane="TP_ZR1_1" departPos="130.92" departSpeed="0.00" departDelay="5.30" arrival="118.00" arrivalLane="mainlane_16_0" arrivalPos="997.88" arrivalSpeed="31.43" duration="87.00" routeLength="1708.16" waitingTime="0.00" waitingCount="0" stopTime="0.00" timeLoss="14.84" rerouteNo="1" devices="tripinfo_xiaokeche_taiping_ru.16 routing_xiaokeche_taiping_ru.16" vType="xiaokeche" speedFactor="1.03" vaporized=""/>
    <tripinfo id="xiaokeche_taiping_ru.19" depart="39.00" departLane="TP_ZR1_0" departPos="210.13" departSpeed="0.00" departDelay="8.49" arrival="119.00" arrivalLane="mainlane_16_0" arrivalPos="997.88" arrivalSpeed="32.92" duration="80.00" routeLength="1628.95" waitingTime="0.00" waitingCount="0" stopTime="0.00" timeLoss="12.75" rerouteNo="1" devices="tripinfo_xiaokeche_taiping_ru.19 routing_xiaokeche_taiping_ru.19" vType="xiaokeche" speedFactor="1.00" vaporized=""/>
    <tripinfo id="xiaokeche_taiping_ru.37" depart="64.00" departLane="TP_ZR1_1" departPos="466.03" departSpeed="0.00" departDelay="4.58" arrival="119.00" arrivalLane="mainlane_16_1" arrivalPos="997.88" arrivalSpeed="33.13" duration="55.00" routeLength="1373.05" waitingTime="0.00" waitingCount="0" stopTime="0.00" timeLoss="6.12" rerouteNo="1" devices="tripinfo_xiaokeche_taiping_ru.37 routing_xiaokeche_taiping_ru.37" vType="xiaokeche" speedFactor="1.05" vaporized=""/>
    <tripinfo id="xiaokeche_taiping_ru.21" depart="39.00" departLane="TP_ZR1_0" departPos="121.70" departSpeed="0.00" departDelay="5.27" arrival="120.00" arrivalLane="mainlane_16_0" arrivalPos="997.88" arrivalSpeed="32.16" duration="81.00" routeLength="1717.38" waitingTime="0.00" waitingCount="0" stopTime="0.00" timeLoss="9.46" rerouteNo="1" devices="tripinfo_xiaokeche_taiping_ru.21 routing_xiaokeche_taiping_ru.21" vType="xiaokeche" speedFactor="1.05" vaporized=""/>
    <tripinfo id="xiaokeche_houjienan_chu.1" depart="3.00" departLane="mainlane01_3" departPos="104.39" departSpeed="0.00" departDelay="0.58" arrival="122.00" arrivalLane="HJN_ZC1_1" arrivalPos="42.55" arrivalSpeed="16.75" duration="119.00" routeLength="3481.24" waitingTime="0.00" waitingCount="0" stopTime="0.00" timeLoss="10.58" rerouteNo="1" devices="tripinfo_xiaokeche_houjienan_chu.1 routing_xiaokeche_houjienan_chu.1" vType="xiaokeche" speedFactor="1.03" vaporized=""/>
    <tripinfo id="xiaokeche_taiping_ru.30" depart="52.00" departLane="TP_ZR1_1" departPos="294.65" departSpeed="0.00" departDelay="3.82" arrival="122.00" arrivalLane="mainlane_16_0" arrivalPos="997.88" arrivalSpeed="32.53" duration="70.00" routeLength="1544.43" waitingTime="0.00" waitingCount="0" stopTime="0.00" timeLoss="9.50" rerouteNo="1" devices="tripinfo_xiaokeche_taiping_ru.30 routing_xiaokeche_taiping_ru.30" vType="xiaokeche" speedFactor="1.04" vaporized=""/>
    <tripinfo id="xiaokeche_taiping_ru.28" depart="47.00" departLane="TP_ZR1_1" departPos="188.28" departSpeed="0.00" departDelay="2.03" arrival="123.00" arrivalLane="mainlane_16_0" arrivalPos="997.88" arrivalSpeed="32.06" duration="76.00" routeLength="1650.80" waitingTime="0.00" waitingCount="0" stopTime="0.00" timeLoss="8.20" rerouteNo="1" devices="tripinfo_xiaokeche_taiping_ru.28 routing_xiaokeche_taiping_ru.28" vType="xiaokeche" speedFactor="1.04" vaporized=""/>
    <tripinfo id="xiaokeche_taiping_ru.20" depart="39.00" departLane="TP_ZR1_1" departPos="7.64" departSpeed="0.00" departDelay="6.88" arrival="125.00" arrivalLane="mainlane_16_0" arrivalPos="997.88" arrivalSpeed="32.98" duration="86.00" routeLength="1831.44" waitingTime="0.00" waitingCount="0" stopTime="0.00" timeLoss="9.17" rerouteNo="1" devices="tripinfo_xiaokeche_taiping_ru.20 routing_xiaokeche_taiping_ru.20" vType="xiaokeche" speedFactor="1.12" vaporized=""/>
    <tripinfo id="xiaokeche_taiping_ru.39" depart="66.00" departLane="TP_ZR1_1" departPos="410.80" departSpeed="0.00" departDelay="3.37" arrival="126.00" arrivalLane="mainlane_16_0" arrivalPos="997.88" arrivalSpeed="31.35" duration="60.00" routeLength="1428.28" waitingTime="0.00" waitingCount="0" stopTime="0.00" timeLoss="5.84" rerouteNo="1" devices="tripinfo_xiaokeche_taiping_ru.39 routing_xiaokeche_taiping_ru.39" vType="xiaokeche" speedFactor="0.98" vaporized=""/>
    <tripinfo id="xiaokeche_taiping_ru.27" depart="46.00" departLane="TP_ZR1_1" departPos="138.30" departSpeed="0.00" departDelay="2.64" arrival="129.00" arrivalLane="mainlane_16_0" arrivalPos="997.88" arrivalSpeed="31.41" duration="83.00" routeLength="1700.78" waitingTime="0.00" waitingCount="0" stopTime="0.00" timeLoss="7.23" rerouteNo="1" devices="tripinfo_xiaokeche_taiping_ru.27 routing_xiaokeche_taiping_ru.27" vType="xiaokeche" speedFactor="0.96" vaporized=""/>
    <tripinfo id="xiaokeche_taiping_ru.43" depart="75.00" departLane="TP_ZR1_1" departPos="101.96" departSpeed="0.00" departDelay="5.94" arrival="130.00" arrivalLane="mainlane_16_1" arrivalPos="997.88" arrivalSpeed="17.54" duration="55.00" routeLength="1737.12" waitingTime="0.00" waitingCount="0" stopTime="0.00" timeLoss="15.73" rerouteNo="1" devices="tripinfo_xiaokeche_taiping_ru.43 routing_xiaokeche_taiping_ru.43" vType="xiaokeche" speedFactor="1.15" vaporized="teleport"/>
    <tripinfo id="tedaxinghuoche_taiping_ru.1" depart="42.00" departLane="TP_ZR1_0" departPos="124.15" departSpeed="0.00" departDelay="1.55" arrival="137.00" arrivalLane="mainlane_16_0" arrivalPos="997.88" arrivalSpeed="27.51" duration="95.00" routeLength="1714.93" waitingTime="0.00" waitingCount="0" stopTime="0.00" timeLoss="11.43" rerouteNo="1" devices="tripinfo_tedaxinghuoche_taiping_ru.1 routing_tedaxinghuoche_taiping_ru.1" vType="tedaxinghuoche" speedFactor="0.92" vaporized=""/>
    <tripinfo id="xiaokeche_taiping_ru.44" depart="76.00" departLane="TP_ZR1_1" departPos="469.76" departSpeed="0.00" departDelay="5.34" arrival="138.00" arrivalLane="mainlane_16_1" arrivalPos="997.88" arrivalSpeed="28.07" duration="62.00" routeLength="1369.32" waitingTime="0.00" waitingCount="0" stopTime="0.00" timeLoss="5.83" rerouteNo="1" devices="tripinfo_xiaokeche_taiping_ru.44 routing_xiaokeche_taiping_ru.44" vType="xiaokeche" speedFactor="0.87" vaporized=""/>
    <tripinfo id="xiaokeche_houjienan_chu.2" depart="5.00" departLane="mainlane01_4" departPos="36.78" departSpeed="0.00" departDelay="0.16" arrival="139.00" arrivalLane="HJN_ZC1_0" arrivalPos="42.55" arrivalSpeed="13.96" duration="134.00" routeLength="3548.85" waitingTime="0.00" waitingCount="0" stopTime="0.00" timeLoss="10.56" rerouteNo="1" devices="tripinfo_xiaokeche_houjienan_chu.2 routing_xiaokeche_houjienan_chu.2" vType="xiaokeche" speedFactor="0.90" vaporized=""/>
    <tripinfo id="daxinghuoche_taiping_ru.2" depart="42.00" departLane="TP_ZR1_0" departPos="88.29" departSpeed="0.00" departDelay="1.78" arrival="139.00" arrivalLane="mainlane_16_0" arrivalPos="997.88" arrivalSpeed="27.68" duration="97.00" routeLength="1750.79" waitingTime="0.00" waitingCount="0" stopTime="0.00" timeLoss="14.20" rerouteNo="1" devices="tripinfo_daxinghuoche_taiping_ru.2 routing_daxinghuoche_taiping_ru.2" vType="daxinghuoche" speedFactor="1.00" vaporized=""/>
    <tripinfo id="xiaokeche_taiping_ru.41" depart="72.00" departLane="TP_ZR1_1" departPos="421.60" departSpeed="0.00" departDelay="6.15" arrival="139.00" arrivalLane="mainlane_16_1" arrivalPos="997.88" arrivalSpeed="30.18" duration="67.00" routeLength="1417.48" waitingTime="0.00" waitingCount="0" stopTime="0.00" timeLoss="13.89" rerouteNo="1" devices="tripinfo_xiaokeche_taiping_ru.41 routing_xiaokeche_taiping_ru.41" vType="xiaokeche" speedFactor="0.98" vaporized=""/>
    <tripinfo id="xiaokeche_taiping_ru.23" depart="39.00" departLane="TP_ZR1_0" departPos="18.13" departSpeed="0.00" departDelay="2.06" arrival="141.00" arrivalLane="mainlane_16_0" arrivalPos="997.88" arrivalSpeed="30.29" duration="102.00" routeLength="1820.95" waitingTime="0.00" waitingCount="0" stopTime="0.00" timeLoss="24.20" rerouteNo="1" devices="tripinfo_xiaokeche_taiping_ru.23 routing_xiaokeche_taiping_ru.23" vType="xiaokeche" speedFactor="1.09" vaporized=""/>
    <tripinfo id="xiaokeche_taiping_ru.36" depart="58.00" departLane="TP_ZR1_1" departPos="189.19" departSpeed="0.00" departDelay="0.18" arrival="141.00" arrivalLane="mainlane_16_1" arrivalPos="997.88" arrivalSpeed="32.12" duration="83.00" routeLength="1649.89" waitingTime="0.00" waitingCount="0" stopTime="0.00" timeLoss="11.95" rerouteNo="1" devices="tripinfo_xiaokeche_taiping_ru.36 routing_xiaokeche_taiping_ru.36" vType="xiaokeche" speedFactor="0.98" vaporized=""/>
    <tripinfo id="xiaokeche_taiping_ru.50" depart="89.00" departLane="TP_ZR1_1" departPos="524.07" departSpeed="0.00" departDelay="8.70" arrival="142.00" arrivalLane="mainlane_16_0" arrivalPos="997.88" arrivalSpeed="30.02" duration="53.00" routeLength="1315.01" waitingTime="0.00" waitingCount="0" stopTime="0.00" timeLoss="10.41" rerouteNo="1" devices="tripinfo_xiaokeche_taiping_ru.50 routing_xiaokeche_taiping_ru.50" vType="xiaokeche" speedFactor="1.20" vaporized=""/>
    <tripinfo id="xiaokeche_taiping_ru.31" depart="52.00" departLane="TP_ZR1_1" departPos="64.66" departSpeed="0.00" departDelay="2.21" arrival="143.00" arrivalLane="mainlane_16_0" arrivalPos="997.88" arrivalSpeed="28.19" duration="91.00" routeLength="1774.42" waitingTime="0.00" waitingCount="0" stopTime="0.00" timeLoss="9.76" rerouteNo="1" devices="tripinfo_xiaokeche_taiping_ru.31 routing_xiaokeche_taiping_ru.31" vType="xiaokeche" speedFactor="0.96" vaporized=""/>
    <tripinfo id="xiaokeche_taiping_ru.49" depart="86.00" departLane="TP_ZR1_1" departPos="494.13" departSpeed="0.00" departDelay="7.31" arrival="143.00" arrivalLane="mainlane_16_0" arrivalPos="997.88" arrivalSpeed="31.84" duration="57.00" routeLength="1344.95" waitingTime="0.00" waitingCount="0" stopTime="0.00" timeLoss="8.05" rerouteNo="1" devices="tripinfo_xiaokeche_taiping_ru.49 routing_xiaokeche_taiping_ru.49" vType="xiaokeche" speedFactor="0.97" vaporized=""/>
    <tripinfo id="xiaokeche_taiping_ru.46" depart="80.00" departLane="TP_ZR1_1" departPos="411.71" departSpeed="0.00" departDelay="6.12" arrival="145.00" arrivalLane="mainlane_16_0" arrivalPos="997.88" arrivalSpeed="30.62" duration="65.00" routeLength="1427.37" waitingTime="0.00" waitingCount="0" stopTime="0.00" timeLoss="7.90" rerouteNo="1" devices="tripinfo_xiaokeche_taiping_ru.46 routing_xiaokeche_taiping_ru.46" vType="xiaokeche" speedFactor="0.93" vaporized=""/>
    <tripinfo id="xiaokeche_taiping_ru.29" depart="48.00" departLane="TP_ZR1_1" departPos="9.43" departSpeed="0.00" departDelay="1.43" arrival="146.00" arrivalLane="mainlane_16_1" arrivalPos="997.88" arrivalSpeed="33.18" duration="98.00" routeLength="1829.65" waitingTime="0.00" waitingCount="0" stopTime="0.00" timeLoss="18.41" rerouteNo="1" devices="tripinfo_xiaokeche_taiping_ru.29 routing_xiaokeche_taiping_ru.29" vType="xiaokeche" speedFactor="1.07" vaporized=""/>
    <tripinfo id="xiaokeche_taiping_ru.47" depart="82.00" departLane="TP_ZR1_1" departPos="441.41" departSpeed="0.00" departDelay="6.52" arrival="146.00" arrivalLane="mainlane_16_0" arrivalPos="997.88" arrivalSpeed="32.34" duration="64.00" routeLength="1397.67" waitingTime="0.00" waitingCount="0" stopTime="0.00" timeLoss="12.97" rerouteNo="1" devices="tripinfo_xiaokeche_taiping_ru.47 routing_xiaokeche_taiping_ru.47" vType="xiaokeche" speedFactor="1.00" vaporized=""/>
    <tripinfo id="xiaokeche_taiping_ru.32" depart="52.00" departLane="TP_ZR1_1" departPos="47.24" departSpeed="0.00" departDelay="0.61" arrival="147.00" arrivalLane="mainlane_16_0" arrivalPos="997.88" arrivalSpeed="31.83" duration="95.00" routeLength="1791.84" waitingTime="0.00" waitingCount="0" stopTime="0.00" timeLoss="15.27" rerouteNo="1" devices="tripinfo_xiaokeche_taiping_ru.32 routing_xiaokeche_taiping_ru.32" vType="xiaokeche" speedFactor="0.99" vaporized=""/>
    <tripinfo id="xiaokeche_houjienan_chu.3" depart="12.00" departLane="mainlane01_4" departPos="32.36" departSpeed="0.00" departDelay="4.75" arrival="148.00" arrivalLane="HJN_ZC1_1" arrivalPos="42.55" arrivalSpeed="16.66" duration="136.00" routeLength="3553.27" waitingTime="0.00" waitingCount="0" stopTime="0.00" timeLoss="25.10" rerouteNo="1" devices="tripinfo_xiaokeche_houjienan_chu.3 routing_xiaokeche_houjienan_chu.3" vType="xiaokeche" speedFactor="1.02" vaporized=""/>
    <tripinfo id="xiaokeche_taiping_ru.38" depart="65.00" departLane="TP_ZR1_1" departPos="141.65" departSpeed="0.00" departDelay="3.97" arrival="149.00" arrivalLane="mainlane_16_0" arrivalPos="997.88" arrivalSpeed="32.33" duration="84.00" routeLength="1697.43" waitingTime="0.00" waitingCount="0" stopTime="0.00" timeLoss="14.36" rerouteNo="1" devices="tripinfo_xiaokeche_taiping_ru.38 routing_xiaokeche_taiping_ru.38" vType="xiaokeche" speedFactor="1.08" vaporized=""/>
    <tripinfo id="dakeche_houjienan_chu.0" depart="7.00" departLane="mainlane01_0" departPos="142.48" departSpeed="0.00" departDelay="7.00" arrival="150.00" arrivalLane="HJN_ZC1_0" arrivalPos="42.55" arrivalSpeed="16.41" duration="143.00" routeLength="3443.15" waitingTime="0.00" waitingCount="0" stopTime="0.00" timeLoss="16.58" rerouteNo="1" devices="tripinfo_dakeche_houjienan_chu.0 routing_dakeche_houjienan_chu.0" vType="dakeche" speedFactor="1.00" vaporized=""/>
    <tripinfo id="xiaokeche_taiping_ru.35" depart="57.00" departLane="TP_ZR1_1" departPos="2.96" departSpeed="0.00" departDelay="0.79" arrival="150.00" arrivalLane="mainlane_16_0" arrivalPos="997.88" arrivalSpeed="32.34" duration="93.00" routeLength="1836.12" waitingTime="0.00" waitingCount="0" stopTime="0.00" timeLoss="12.76" rerouteNo="1" devices="tripinfo_xiaokeche_taiping_ru.35 routing_xiaokeche_taiping_ru.35" vType="xiaokeche" speedFactor="1.04" vaporized=""/>
    <tripinfo id="xiaokeche_houjienan_chu.0" depart="0.00" departLane="mainlane01_1" departPos="6.65" departSpeed="0.00" departDelay="0.00" arrival="156.00" arrivalLane="HJN_ZC1_1" arrivalPos="42.55" arrivalSpeed="13.44" duration="156.00" routeLength="3578.98" waitingTime="0.00" waitingCount="0" stopTime="0.00" timeLoss="21.48" rerouteNo="1" devices="tripinfo_xiaokeche_houjienan_chu.0 routing_xiaokeche_houjienan_chu.0" vType="xiaokeche" speedFactor="0.83" vaporized=""/>