<?xml version="1.0" encoding="UTF-8"?>

<!-- generated on 2021-11-05 20:46:11 by Eclipse SUMO GUI Version 1.10.0
<configuration xmlns:xsi="http://www.w3.org/2001/XMLSchema-instance" xsi:noNamespaceSchemaLocation="http://sumo.dlr.de/xsd/sumoConfiguration.xsd">

    <input>
        <net-file value="F:\sumo_pro/traci_main\guangshen\guangshen\guangshen_ALL.net.xml"/>
        <route-files value="F:\sumo_pro/traci_main\guangshen\guangshen\guangshen_ALL.rou.xml"/>
    </input>

    <output>
        <tripinfo-output value="F:\sumo_pro\traci_main\guangshen\guangshen/tripinfo2_TEST.xml"/>
    </output>

    <time>
        <begin value="0"/>
        <end value="20000"/>
    </time>

    <report>
        <verbose value="true"/>
        <duration-log.statistics value="true"/>
    </report>

    <traci_server>
        <remote-port value="54315"/>
    </traci_server>

    <gui_only>
        <gui-settings-file value="F:\sumo_pro/traci_main\guangshen\guangshen\gui-settings2.cfg"/>
        <quit-on-end value="true"/>
        <start value="true"/>
    </gui_only>

</configuration>
-->

<tripinfos xmlns:xsi="http://www.w3.org/2001/XMLSchema-instance" xsi:noNamespaceSchemaLocation="http://sumo.dlr.de/xsd/tripinfo_file.xsd">
    <tripinfo id="xiaokeche5.2" depart="8.00" departLane="mainlane01_3" departPos="4.10" departSpeed="0.00" departDelay="0.80" arrival="867.00" arrivalLane="mainlane_16_0" arrivalPos="997.88" arrivalSpeed="14.06" duration="859.00" routeLength="12050.57" waitingTime="0.00" waitingCount="0" stopTime="0.00" timeLoss="41.54" rerouteNo="1" devices="tripinfo_xiaokeche5.2 routing_xiaokeche5.2" vType="xiaokeche" speedFactor="1.06" vaporized=""/>
    <tripinfo id="xiaokeche2.6" depart="26.00" departLane="mainlane01_4" departPos="4.10" departSpeed="0.00" departDelay="4.40" arrival="872.00" arrivalLane="mainlane_16_0" arrivalPos="997.88" arrivalSpeed="14.55" duration="846.00" routeLength="12050.57" waitingTime="0.00" waitingCount="0" stopTime="0.00" timeLoss="40.10" rerouteNo="1" devices="tripinfo_xiaokeche2.6 routing_xiaokeche2.6" vType="xiaokeche" speedFactor="1.08" vaporized=""/>
    <tripinfo id="xiaokeche5.0" depart="3.00" departLane="mainlane01_3" departPos="4.10" departSpeed="0.00" departDelay="3.00" arrival="883.00" arrivalLane="mainlane_16_0" arrivalPos="997.88" arrivalSpeed="13.99" duration="880.00" routeLength="12050.57" waitingTime="0.00" waitingCount="0" stopTime="0.00" timeLoss="46.24" rerouteNo="1" devices="tripinfo_xiaokeche5.0 routing_xiaokeche5.0" vType="xiaokeche" speedFactor="1.04" vaporized=""/>
    <tripinfo id="xiaokeche4.3" depart="15.00" departLane="mainlane01_4" departPos="13.10" departSpeed="0.00" departDelay="4.20" arrival="884.00" arrivalLane="mainlane_16_0" arrivalPos="997.88" arrivalSpeed="14.36" duration="869.00" routeLength="12041.57" waitingTime="0.00" waitingCount="0" stopTime="0.00" timeLoss="64.75" rerouteNo="1" devices="tripinfo_xiaokeche4.3 routing_xiaokeche4.3" vType="daxinghuoche" speedFactor="1.08" vaporized=""/>
    <tripinfo id="xiaokeche4.0" depart="0.00" departLane="mainlane01_2" departPos="13.10" departSpeed="0.00" departDelay="0.00" arrival="886.00" arrivalLane="mainlane_16_1" arrivalPos="997.88" arrivalSpeed="13.49" duration="886.00" routeLength="12041.57" waitingTime="0.00" waitingCount="0" stopTime="0.00" timeLoss="31.39" rerouteNo="1" devices="tripinfo_xiaokeche4.0 routing_xiaokeche4.0" vType="daxinghuoche" speedFactor="1.02" vaporized=""/>
    <tripinfo id="xiaokeche1.0" depart="0.00" departLane="mainlane01_1" departPos="4.10" departSpeed="0.00" departDelay="0.00" arrival="887.00" arrivalLane="mainlane_16_0" arrivalPos="997.88" arrivalSpeed="13.89" duration="887.00" routeLength="12050.57" waitingTime="0.00" waitingCount="0" stopTime="0.00" timeLoss="43.86" rerouteNo="1" devices="tripinfo_xiaokeche1.0 routing_xiaokeche1.0" vType="xiaokeche" speedFactor="1.03" vaporized=""/>
    <tripinfo id="xiaokeche5.5" depart="19.00" departLane="mainlane01_4" departPos="4.10" departSpeed="0.00" departDelay="1.00" arrival="888.00" arrivalLane="mainlane_16_0" arrivalPos="997.88" arrivalSpeed="14.14" duration="869.00" routeLength="12050.57" waitingTime="0.00" waitingCount="0" stopTime="0.00" timeLoss="54.82" rerouteNo="1" devices="tripinfo_xiaokeche5.5 routing_xiaokeche5.5" vType="xiaokeche" speedFactor="1.07" vaporized=""/>
    <tripinfo id="xiaokeche1.6" depart="22.00" departLane="mainlane01_3" departPos="4.10" departSpeed="0.00" departDelay="0.40" arrival="890.00" arrivalLane="mainlane_16_0" arrivalPos="997.88" arrivalSpeed="14.12" duration="868.00" routeLength="12050.57" waitingTime="0.00" waitingCount="0" stopTime="0.00" timeLoss="71.02" rerouteNo="1" devices="tripinfo_xiaokeche1.6 routing_xiaokeche1.6" vType="xiaokeche" speedFactor="1.09" vaporized=""/>
    <tripinfo id="xiaokeche1.2" depart="8.00" departLane="mainlane01_1" departPos="4.10" departSpeed="0.00" departDelay="0.80" arrival="891.00" arrivalLane="mainlane_16_1" arrivalPos="997.88" arrivalSpeed="13.51" duration="883.00" routeLength="12050.57" waitingTime="0.00" waitingCount="0" stopTime="0.00" timeLoss="52.42" rerouteNo="1" devices="tripinfo_xiaokeche1.2 routing_xiaokeche1.2" vType="xiaokeche" speedFactor="1.05" vaporized=""/>
    <tripinfo id="xiaokeche5.6" depart="24.00" departLane="mainlane01_3" departPos="4.10" departSpeed="0.00" departDelay="2.40" arrival="892.00" arrivalLane="mainlane_16_0" arrivalPos="997.88" arrivalSpeed="14.91" duration="868.00" routeLength="12050.57" waitingTime="0.00" waitingCount="0" stopTime="0.00" timeLoss="68.87" rerouteNo="1" devices="tripinfo_xiaokeche5.6 routing_xiaokeche5.6" vType="xiaokeche" speedFactor="1.09" vaporized=""/>
    <tripinfo id="xiaokeche2.2" depart="8.00" departLane="mainlane01_2" departPos="4.10" departSpeed="0.00" departDelay="0.80" arrival="911.00" arrivalLane="mainlane_16_0" arrivalPos="997.88" arrivalSpeed="13.11" duration="903.00" routeLength="12050.57" waitingTime="0.00" waitingCount="0" stopTime="0.00" timeLoss="46.19" rerouteNo="1" devices="tripinfo_xiaokeche2.2 routing_xiaokeche2.2" vType="xiaokeche" speedFactor="1.01" vaporized=""/>
    <tripinfo id="xiaokeche3.7" depart="31.00" departLane="mainlane01_3" departPos="4.10" departSpeed="0.00" departDelay="5.80" arrival="912.00" arrivalLane="mainlane_16_0" arrivalPos="997.88" arrivalSpeed="14.46" duration="881.00" routeLength="12050.57" waitingTime="0.00" waitingCount="0" stopTime="0.00" timeLoss="84.92" rerouteNo="1" devices="tripinfo_xiaokeche3.7 routing_xiaokeche3.7" vType="xiaokeche" speedFactor="1.09" vaporized=""/>
    <tripinfo id="xiaokeche3.0" depart="1.00" departLane="mainlane01_4" departPos="4.10" departSpeed="0.00" departDelay="1.00" arrival="913.00" arrivalLane="mainlane_16_1" arrivalPos="997.88" arrivalSpeed="13.85" duration="912.00" routeLength="12050.57" waitingTime="0.00" waitingCount="0" stopTime="0.00" timeLoss="48.52" rerouteNo="1" devices="tripinfo_xiaokeche3.0 routing_xiaokeche3.0" vType="xiaokeche" speedFactor="1.01" vaporized=""/>
    <tripinfo id="xiaokeche2.10" depart="40.00" departLane="mainlane01_4" departPos="4.10" departSpeed="0.00" departDelay="4.00" arrival="914.00" arrivalLane="mainlane_16_0" arrivalPos="997.88" arrivalSpeed="14.90" duration="874.00" routeLength="12050.57" waitingTime="0.00" waitingCount="0" stopTime="0.00" timeLoss="73.59" rerouteNo="1" devices="tripinfo_xiaokeche2.10 routing_xiaokeche2.10" vType="xiaokeche" speedFactor="1.08" vaporized=""/>
    <tripinfo id="xiaokeche2.1" depart="4.00" departLane="mainlane01_1" departPos="4.10" departSpeed="0.00" departDelay="0.40" arrival="917.00" arrivalLane="mainlane_16_0" arrivalPos="997.88" arrivalSpeed="13.80" duration="913.00" routeLength="12050.57" waitingTime="0.00" waitingCount="0" stopTime="0.00" timeLoss="64.58" rerouteNo="1" devices="tripinfo_xiaokeche2.1 routing_xiaokeche2.1" vType="xiaokeche" speedFactor="1.02" vaporized=""/>
    <tripinfo id="xiaokeche4.2" depart="12.00" departLane="mainlane01_3" departPos="13.10" departSpeed="0.00" departDelay="4.80" arrival="919.00" arrivalLane="mainlane_16_0" arrivalPos="997.88" arrivalSpeed="13.56" duration="907.00" routeLength="12041.57" waitingTime="0.00" waitingCount="0" stopTime="0.00" timeLoss="35.92" rerouteNo="1" devices="tripinfo_xiaokeche4.2 routing_xiaokeche4.2" vType="daxinghuoche" speedFactor="1.00" vaporized=""/>
    <tripinfo id="xiaokeche4.16" depart="66.00" departLane="mainlane01_3" departPos="13.10" departSpeed="0.00" departDelay="8.40" arrival="928.00" arrivalLane="mainlane_16_0" arrivalPos="997.88" arrivalSpeed="14.73" duration="862.00" routeLength="12041.57" waitingTime="0.00" waitingCount="0" stopTime="0.00" timeLoss="54.34" rerouteNo="1" devices="tripinfo_xiaokeche4.16 routing_xiaokeche4.16" vType="daxinghuoche" speedFactor="1.07" vaporized=""/>
    <tripinfo id="xiaokeche2.4" depart="16.00" departLane="mainlane01_3" departPos="4.10" departSpeed="0.00" departDelay="1.60" arrival="942.00" arrivalLane="mainlane_16_1" arrivalPos="997.88" arrivalSpeed="12.82" duration="926.00" routeLength="12050.57" waitingTime="0.00" waitingCount="0" stopTime="0.00" timeLoss="62.37" rerouteNo="1" devices="tripinfo_xiaokeche2.4 routing_xiaokeche2.4" vType="xiaokeche" speedFactor="1.01" vaporized=""/>
    <tripinfo id="xiaokeche2.0" depart="0.00" departLane="mainlane01_3" departPos="4.10" departSpeed="0.00" departDelay="0.00" arrival="943.00" arrivalLane="mainlane_16_0" arrivalPos="997.88" arrivalSpeed="13.44" duration="943.00" routeLength="12050.57" waitingTime="0.00" waitingCount="0" stopTime="0.00" timeLoss="47.70" rerouteNo="1" devices="tripinfo_xiaokeche2.0 routing_xiaokeche2.0" vType="xiaokeche" speedFactor="0.97" vaporized=""/>
    <tripinfo id="xiaokeche5.7" depart="28.00" departLane="mainlane01_3" departPos="4.10" departSpeed="0.00" departDelay="2.80" arrival="946.00" arrivalLane="mainlane_16_0" arrivalPos="997.88" arrivalSpeed="13.50" duration="918.00" routeLength="12050.57" waitingTime="0.00" waitingCount="0" stopTime="0.00" timeLoss="91.88" rerouteNo="1" devices="tripinfo_xiaokeche5.7 routing_xiaokeche5.7" vType="xiaokeche" speedFactor="1.05" vaporized=""/>
    <tripinfo id="xiaokeche5.1" depart="4.00" departLane="mainlane01_2" departPos="4.10" departSpeed="0.00" departDelay="0.40" arrival="950.00" arrivalLane="mainlane_16_0" arrivalPos="997.88" arrivalSpeed="12.83" duration="946.00" routeLength="12050.57" waitingTime="0.00" waitingCount="0" stopTime="0.00" timeLoss="50.16" rerouteNo="1" devices="tripinfo_xiaokeche5.1 routing_xiaokeche5.1" vType="xiaokeche" speedFactor="0.97" vaporized=""/>
    <tripinfo id="xiaokeche1.9" depart="37.00" departLane="mainlane01_3" departPos="4.10" departSpeed="0.00" departDelay="4.60" arrival="951.00" arrivalLane="mainlane_16_1" arrivalPos="997.88" arrivalSpeed="13.66" duration="914.00" routeLength="12050.57" waitingTime="0.00" waitingCount="0" stopTime="0.00" timeLoss="82.72" rerouteNo="1" devices="tripinfo_xiaokeche1.9 routing_xiaokeche1.9" vType="xiaokeche" speedFactor="1.04" vaporized=""/>
    <tripinfo id="xiaokeche1.7" depart="27.00" departLane="mainlane01_2" departPos="4.10" departSpeed="0.00" departDelay="1.80" arrival="952.00" arrivalLane="mainlane_16_0" arrivalPos="997.88" arrivalSpeed="13.89" duration="925.00" routeLength="12050.57" waitingTime="0.00" waitingCount="0" stopTime="0.00" timeLoss="65.00" rerouteNo="1" devices="tripinfo_xiaokeche1.7 routing_xiaokeche1.7" vType="xiaokeche" speedFactor="1.01" vaporized=""/>
    <tripinfo id="xiaokeche3.4" depart="15.00" departLane="mainlane01_2" departPos="4.10" departSpeed="0.00" departDelay="0.60" arrival="953.00" arrivalLane="mainlane_16_0" arrivalPos="997.88" arrivalSpeed="13.66" duration="938.00" routeLength="12050.57" waitingTime="0.00" waitingCount="0" stopTime="0.00" timeLoss="59.33" rerouteNo="1" devices="tripinfo_xiaokeche3.4 routing_xiaokeche3.4" vType="xiaokeche" speedFactor="0.99" vaporized=""/>
    <tripinfo id="xiaokeche5.10" depart="44.00" departLane="mainlane01_3" departPos="4.10" departSpeed="0.00" departDelay="8.00" arrival="953.00" arrivalLane="mainlane_16_1" arrivalPos="997.88" arrivalSpeed="13.49" duration="909.00" routeLength="12050.57" waitingTime="0.00" waitingCount="0" stopTime="0.00" timeLoss="80.48" rerouteNo="1" devices="tripinfo_xiaokeche5.10 routing_xiaokeche5.10" vType="xiaokeche" speedFactor="1.05" vaporized=""/>
    <tripinfo id="xiaokeche5.19" depart="72.00" departLane="mainlane01_4" departPos="4.10" departSpeed="0.00" departDelay="3.60" arrival="958.00" arrivalLane="mainlane_16_0" arrivalPos="997.88" arrivalSpeed="13.85" duration="886.00" routeLength="12050.57" waitingTime="0.00" waitingCount="0" stopTime="0.00" timeLoss="67.91" rerouteNo="1" devices="tripinfo_xiaokeche5.19 routing_xiaokeche5.19" vType="xiaokeche" speedFactor="1.06" vaporized=""/>
    <tripinfo id="xiaokeche5.3" depart="11.00" departLane="mainlane01_2" departPos="4.10" departSpeed="0.00" departDelay="0.20" arrival="964.00" arrivalLane="mainlane_16_0" arrivalPos="997.88" arrivalSpeed="13.02" duration="953.00" routeLength="12050.57" waitingTime="0.00" waitingCount="0" stopTime="0.00" timeLoss="55.93" rerouteNo="1" devices="tripinfo_xiaokeche5.3 routing_xiaokeche5.3" vType="xiaokeche" speedFactor="0.97" vaporized=""/>
    <tripinfo id="xiaokeche3.6" depart="22.00" departLane="mainlane01_1" departPos="4.10" departSpeed="0.00" departDelay="0.40" arrival="968.00" arrivalLane="mainlane_16_0" arrivalPos="997.88" arrivalSpeed="12.69" duration="946.00" routeLength="12050.57" waitingTime="1.00" waitingCount="1" stopTime="0.00" timeLoss="80.46" rerouteNo="1" devices="tripinfo_xiaokeche3.6 routing_xiaokeche3.6" vType="xiaokeche" speedFactor="1.00" vaporized=""/>
    <tripinfo id="xiaokeche1.16" depart="59.00" departLane="mainlane01_4" departPos="4.10" departSpeed="0.00" departDelay="1.40" arrival="969.00" arrivalLane="mainlane_16_1" arrivalPos="997.88" arrivalSpeed="13.54" duration="910.00" routeLength="12050.57" waitingTime="0.00" waitingCount="0" stopTime="0.00" timeLoss="56.70" rerouteNo="1" devices="tripinfo_xiaokeche1.16 routing_xiaokeche1.16" vType="xiaokeche" speedFactor="1.02" vaporized=""/>
    <tripinfo id="xiaokeche2.8" depart="30.00" departLane="mainlane01_4" departPos="4.10" departSpeed="0.00" departDelay="1.20" arrival="971.00" arrivalLane="mainlane_16_0" arrivalPos="997.88" arrivalSpeed="12.68" duration="941.00" routeLength="12050.57" waitingTime="0.00" waitingCount="0" stopTime="0.00" timeLoss="53.70" rerouteNo="1" devices="tripinfo_xiaokeche2.8 routing_xiaokeche2.8" vType="xiaokeche" speedFactor="0.98" vaporized=""/>
    <tripinfo id="xiaokeche3.10" depart="40.00" departLane="mainlane01_3" departPos="4.10" departSpeed="0.00" departDelay="4.00" arrival="972.00" arrivalLane="mainlane_16_0" arrivalPos="997.88" arrivalSpeed="13.49" duration="932.00" routeLength="12050.57" waitingTime="0.00" waitingCount="0" stopTime="0.00" timeLoss="71.59" rerouteNo="1" devices="tripinfo_xiaokeche3.10 routing_xiaokeche3.10" vType="xiaokeche" speedFactor="1.01" vaporized=""/>
    <tripinfo id="xiaokeche4.26" depart="108.00" departLane="mainlane01_4" departPos="13.10" departSpeed="0.00" departDelay="14.40" arrival="972.00" arrivalLane="mainlane_16_1" arrivalPos="997.88" arrivalSpeed="14.81" duration="864.00" routeLength="12041.57" waitingTime="0.00" waitingCount="0" stopTime="0.00" timeLoss="84.94" rerouteNo="1" devices="tripinfo_xiaokeche4.26 routing_xiaokeche4.26" vType="daxinghuoche" speedFactor="1.11" vaporized=""/>
    <tripinfo id="xiaokeche5.8" depart="34.00" departLane="mainlane01_4" departPos="4.10" departSpeed="0.00" departDelay="5.20" arrival="975.00" arrivalLane="mainlane_16_0" arrivalPos="997.88" arrivalSpeed="13.33" duration="941.00" routeLength="12050.57" waitingTime="0.00" waitingCount="0" stopTime="0.00" timeLoss="89.06" rerouteNo="1" devices="tripinfo_xiaokeche5.8 routing_xiaokeche5.8" vType="xiaokeche" speedFactor="1.02" vaporized=""/>
    <tripinfo id="xiaokeche3.1" depart="5.00" departLane="mainlane01_4" departPos="4.10" departSpeed="0.00" departDelay="1.40" arrival="977.00" arrivalLane="mainlane_16_0" arrivalPos="997.88" arrivalSpeed="11.93" duration="972.00" routeLength="12050.57" waitingTime="0.00" waitingCount="0" stopTime="0.00" timeLoss="51.33" rerouteNo="1" devices="tripinfo_xiaokeche3.1 routing_xiaokeche3.1" vType="xiaokeche" speedFactor="0.94" vaporized=""/>
    <tripinfo id="xiaokeche4.1" depart="9.00" departLane="mainlane01_4" departPos="13.10" departSpeed="0.00" departDelay="5.40" arrival="978.00" arrivalLane="mainlane_16_0" arrivalPos="997.88" arrivalSpeed="12.46" duration="969.00" routeLength="12041.57" waitingTime="0.00" waitingCount="0" stopTime="0.00" timeLoss="35.24" rerouteNo="1" devices="tripinfo_xiaokeche4.1 routing_xiaokeche4.1" vType="daxinghuoche" speedFactor="0.93" vaporized=""/>
    <tripinfo id="xiaokeche3.5" depart="21.00" departLane="mainlane01_2" departPos="4.10" departSpeed="0.00" departDelay="3.00" arrival="981.00" arrivalLane="mainlane_16_0" arrivalPos="997.88" arrivalSpeed="13.01" duration="960.00" routeLength="12050.57" waitingTime="0.00" waitingCount="0" stopTime="0.00" timeLoss="69.03" rerouteNo="1" devices="tripinfo_xiaokeche3.5 routing_xiaokeche3.5" vType="xiaokeche" speedFactor="0.97" vaporized=""/>
    <tripinfo id="xiaokeche4.5" depart="22.00" departLane="mainlane01_0" departPos="13.10" departSpeed="0.00" departDelay="4.00" arrival="982.00" arrivalLane="mainlane_16_0" arrivalPos="997.88" arrivalSpeed="12.95" duration="960.00" routeLength="12041.57" waitingTime="0.00" waitingCount="0" stopTime="0.00" timeLoss="62.18" rerouteNo="1" devices="tripinfo_xiaokeche4.5 routing_xiaokeche4.5" vType="daxinghuoche" speedFactor="0.97" vaporized=""/>
    <tripinfo id="xiaokeche1.3" depart="14.00" departLane="mainlane01_1" departPos="4.10" departSpeed="0.00" departDelay="3.20" arrival="983.00" arrivalLane="mainlane_16_0" arrivalPos="997.88" arrivalSpeed="12.79" duration="969.00" routeLength="12050.57" waitingTime="0.00" waitingCount="0" stopTime="0.00" timeLoss="67.84" rerouteNo="1" devices="tripinfo_xiaokeche1.3 routing_xiaokeche1.3" vType="xiaokeche" speedFactor="0.96" vaporized=""/>
    <tripinfo id="xiaokeche1.14" depart="55.00" departLane="mainlane01_4" departPos="4.10" departSpeed="0.00" departDelay="4.60" arrival="984.00" arrivalLane="mainlane_16_1" arrivalPos="997.88" arrivalSpeed="14.01" duration="929.00" routeLength="12050.57" waitingTime="0.00" waitingCount="0" stopTime="0.00" timeLoss="71.22" rerouteNo="1" devices="tripinfo_xiaokeche1.14 routing_xiaokeche1.14" vType="xiaokeche" speedFactor="1.01" vaporized=""/>
    <tripinfo id="xiaokeche1.25" depart="100.00" departLane="mainlane01_3" departPos="4.10" departSpeed="0.00" departDelay="10.00" arrival="986.00" arrivalLane="mainlane_16_1" arrivalPos="997.88" arrivalSpeed="13.76" duration="886.00" routeLength="12050.57" waitingTime="0.00" waitingCount="0" stopTime="0.00" timeLoss="79.56" rerouteNo="1" devices="tripinfo_xiaokeche1.25 routing_xiaokeche1.25" vType="xiaokeche" speedFactor="1.08" vaporized=""/>
    <tripinfo id="xiaokeche5.28" depart="105.00" departLane="mainlane01_3" departPos="4.10" departSpeed="0.00" departDelay="4.20" arrival="987.00" arrivalLane="mainlane_16_0" arrivalPos="997.88" arrivalSpeed="14.28" duration="882.00" routeLength="12050.57" waitingTime="0.00" waitingCount="0" stopTime="0.00" timeLoss="66.04" rerouteNo="1" devices="tripinfo_xiaokeche5.28 routing_xiaokeche5.28" vType="xiaokeche" speedFactor="1.06" vaporized=""/>
    <tripinfo id="xiaokeche5.14" depart="62.00" departLane="mainlane01_4" departPos="4.10" departSpeed="0.00" departDelay="11.60" arrival="998.00" arrivalLane="mainlane_16_0" arrivalPos="997.88" arrivalSpeed="14.22" duration="936.00" routeLength="12050.57" waitingTime="0.00" waitingCount="0" stopTime="0.00" timeLoss="91.71" rerouteNo="1" devices="tripinfo_xiaokeche5.14 routing_xiaokeche5.14" vType="xiaokeche" speedFactor="1.03" vaporized=""/>
    <tripinfo id="xiaokeche4.6" depart="44.00" departLane="mainlane01_4" departPos="13.10" departSpeed="0.00" departDelay="22.40" arrival="1002.00" arrivalLane="mainlane_16_0" arrivalPos="997.88" arrivalSpeed="13.38" duration="958.00" routeLength="12041.57" waitingTime="0.00" waitingCount="0" stopTime="0.00" timeLoss="88.39" rerouteNo="1" devices="tripinfo_xiaokeche4.6 routing_xiaokeche4.6" vType="daxinghuoche" speedFactor="1.00" vaporized=""/>
    <tripinfo id="xiaokeche1.5" depart="18.00" departLane="mainlane01_0" departPos="4.10" departSpeed="0.00" departDelay="0.00" arrival="1005.00" arrivalLane="mainlane_16_0" arrivalPos="997.88" arrivalSpeed="11.72" duration="987.00" routeLength="12050.57" waitingTime="0.00" waitingCount="0" stopTime="0.00" timeLoss="59.65" rerouteNo="1" devices="tripinfo_xiaokeche1.5 routing_xiaokeche1.5" vType="xiaokeche" speedFactor="0.94" vaporized=""/>
    <tripinfo id="xiaokeche3.3" depart="11.00" departLane="mainlane01_0" departPos="4.10" departSpeed="0.00" departDelay="0.20" arrival="1006.00" arrivalLane="mainlane_16_0" arrivalPos="997.88" arrivalSpeed="12.99" duration="995.00" routeLength="12050.57" waitingTime="0.00" waitingCount="0" stopTime="0.00" timeLoss="101.02" rerouteNo="1" devices="tripinfo_xiaokeche3.3 routing_xiaokeche3.3" vType="xiaokeche" speedFactor="0.97" vaporized=""/>
    <tripinfo id="xiaokeche1.1" depart="6.00" departLane="mainlane01_0" departPos="4.10" departSpeed="0.00" departDelay="2.40" arrival="1008.00" arrivalLane="mainlane_16_1" arrivalPos="997.88" arrivalSpeed="11.57" duration="1002.00" routeLength="12050.57" waitingTime="0.00" waitingCount="0" stopTime="0.00" timeLoss="53.76" rerouteNo="1" devices="tripinfo_xiaokeche1.1 routing_xiaokeche1.1" vType="xiaokeche" speedFactor="0.92" vaporized=""/>
    <tripinfo id="xiaokeche4.7" depart="34.00" departLane="mainlane01_2" departPos="13.10" departSpeed="0.00" departDelay="8.80" arrival="1008.00" arrivalLane="mainlane_16_2" arrivalPos="997.88" arrivalSpeed="13.05" duration="974.00" routeLength="12041.57" waitingTime="0.00" waitingCount="0" stopTime="0.00" timeLoss="61.32" rerouteNo="1" devices="tripinfo_xiaokeche4.7 routing_xiaokeche4.7" vType="daxinghuoche" speedFactor="0.95" vaporized=""/>
    <tripinfo id="xiaokeche3.9" depart="34.00" departLane="mainlane01_3" departPos="4.10" departSpeed="0.00" departDelay="1.60" arrival="1008.00" arrivalLane="mainlane_16_0" arrivalPos="997.88" arrivalSpeed="12.34" duration="974.00" routeLength="12050.57" waitingTime="0.00" waitingCount="0" stopTime="0.00" timeLoss="60.60" rerouteNo="1" devices="tripinfo_xiaokeche3.9 routing_xiaokeche3.9" vType="xiaokeche" speedFactor="0.95" vaporized=""/>
    <tripinfo id="xiaokeche3.2" depart="9.00" departLane="mainlane01_0" departPos="4.10" departSpeed="0.00" departDelay="1.80" arrival="1009.00" arrivalLane="mainlane_16_1" arrivalPos="997.88" arrivalSpeed="13.73" duration="1000.00" routeLength="12050.57" waitingTime="0.00" waitingCount="0" stopTime="0.00" timeLoss="152.31" rerouteNo="1" devices="tripinfo_xiaokeche3.2 routing_xiaokeche3.2" vType="xiaokeche" speedFactor="1.02" vaporized=""/>
    <tripinfo id="xiaokeche2.5" depart="18.00" departLane="mainlane01_2" departPos="4.10" departSpeed="0.00" departDelay="0.00" arrival="1010.00" arrivalLane="mainlane_16_0" arrivalPos="997.88" arrivalSpeed="12.09" duration="992.00" routeLength="12050.57" waitingTime="0.00" waitingCount="0" stopTime="0.00" timeLoss="86.67" rerouteNo="1" devices="tripinfo_xiaokeche2.5 routing_xiaokeche2.5" vType="xiaokeche" speedFactor="0.96" vaporized=""/>
    <tripinfo id="xiaokeche1.11" depart="42.00" departLane="mainlane01_1" departPos="4.10" departSpeed="0.00" departDelay="2.40" arrival="1010.00" arrivalLane="mainlane_16_2" arrivalPos="997.88" arrivalSpeed="13.37" duration="968.00" routeLength="12050.57" waitingTime="2.00" waitingCount="1" stopTime="0.00" timeLoss="98.55" rerouteNo="1" devices="tripinfo_xiaokeche1.11 routing_xiaokeche1.11" vType="xiaokeche" speedFactor="1.00" vaporized=""/>
    <tripinfo id="xiaokeche1.4" depart="15.00" departLane="mainlane01_0" departPos="4.10" departSpeed="0.00" departDelay="0.60" arrival="1011.00" arrivalLane="mainlane_16_0" arrivalPos="997.88" arrivalSpeed="13.03" duration="996.00" routeLength="12050.57" waitingTime="0.00" waitingCount="0" stopTime="0.00" timeLoss="135.83" rerouteNo="1" devices="tripinfo_xiaokeche1.4 routing_xiaokeche1.4" vType="xiaokeche" speedFactor="1.01" vaporized=""/>
    <tripinfo id="xiaokeche1.26" depart="96.00" departLane="mainlane01_4" departPos="4.10" departSpeed="0.00" departDelay="2.40" arrival="1012.00" arrivalLane="mainlane_16_2" arrivalPos="997.88" arrivalSpeed="13.12" duration="916.00" routeLength="12050.57" waitingTime="0.00" waitingCount="0" stopTime="0.00" timeLoss="61.77" rerouteNo="1" devices="tripinfo_xiaokeche1.26 routing_xiaokeche1.26" vType="xiaokeche" speedFactor="1.02" vaporized=""/>
    <tripinfo id="xiaokeche3.8" depart="31.00" departLane="mainlane01_0" departPos="4.10" departSpeed="0.00" departDelay="2.20" arrival="1013.00" arrivalLane="mainlane_16_1" arrivalPos="997.88" arrivalSpeed="13.93" duration="982.00" routeLength="12050.57" waitingTime="0.00" waitingCount="0" stopTime="0.00" timeLoss="151.72" rerouteNo="1" devices="tripinfo_xiaokeche3.8 routing_xiaokeche3.8" vType="xiaokeche" speedFactor="1.05" vaporized=""/>
    <tripinfo id="xiaokeche2.3" depart="11.00" departLane="mainlane01_1" departPos="4.10" departSpeed="0.00" departDelay="0.20" arrival="1014.00" arrivalLane="mainlane_16_0" arrivalPos="997.88" arrivalSpeed="11.80" duration="1003.00" routeLength="12050.57" waitingTime="0.00" waitingCount="0" stopTime="0.00" timeLoss="78.79" rerouteNo="1" devices="tripinfo_xiaokeche2.3 routing_xiaokeche2.3" vType="xiaokeche" speedFactor="0.94" vaporized=""/>
    <tripinfo id="xiaokeche2.16" depart="62.00" departLane="mainlane01_3" departPos="4.10" departSpeed="0.00" departDelay="4.40" arrival="1014.00" arrivalLane="mainlane_16_1" arrivalPos="997.88" arrivalSpeed="12.68" duration="952.00" routeLength="12050.57" waitingTime="0.00" waitingCount="0" stopTime="0.00" timeLoss="83.61" rerouteNo="1" devices="tripinfo_xiaokeche2.16 routing_xiaokeche2.16" vType="xiaokeche" speedFactor="1.00" vaporized=""/>
    <tripinfo id="xiaokeche5.4" depart="18.00" departLane="mainlane01_1" departPos="4.10" departSpeed="0.00" departDelay="3.60" arrival="1016.00" arrivalLane="mainlane_16_0" arrivalPos="997.88" arrivalSpeed="12.75" duration="998.00" routeLength="12050.57" waitingTime="0.00" waitingCount="0" stopTime="0.00" timeLoss="79.29" rerouteNo="1" devices="tripinfo_xiaokeche5.4 routing_xiaokeche5.4" vType="xiaokeche" speedFactor="0.94" vaporized=""/>
    <tripinfo id="xiaokeche1.8" depart="29.00" departLane="mainlane01_0" departPos="4.10" departSpeed="0.00" departDelay="0.20" arrival="1016.00" arrivalLane="mainlane_16_1" arrivalPos="997.88" arrivalSpeed="13.73" duration="987.00" routeLength="12050.57" waitingTime="0.00" waitingCount="0" stopTime="0.00" timeLoss="131.98" rerouteNo="1" devices="tripinfo_xiaokeche1.8 routing_xiaokeche1.8" vType="xiaokeche" speedFactor="1.02" vaporized=""/>
    <tripinfo id="xiaokeche3.11" depart="43.00" departLane="mainlane01_2" departPos="4.10" departSpeed="0.00" departDelay="3.40" arrival="1017.00" arrivalLane="mainlane_16_2" arrivalPos="997.88" arrivalSpeed="14.29" duration="974.00" routeLength="12050.57" waitingTime="0.00" waitingCount="0" stopTime="0.00" timeLoss="163.78" rerouteNo="1" devices="tripinfo_xiaokeche3.11 routing_xiaokeche3.11" vType="xiaokeche" speedFactor="1.07" vaporized=""/>
    <tripinfo id="xiaokeche2.7" depart="29.00" departLane="mainlane01_2" departPos="4.10" departSpeed="0.00" departDelay="3.80" arrival="1018.00" arrivalLane="mainlane_16_0" arrivalPos="997.88" arrivalSpeed="13.15" duration="989.00" routeLength="12050.57" waitingTime="0.00" waitingCount="0" stopTime="0.00" timeLoss="108.83" rerouteNo="1" devices="tripinfo_xiaokeche2.7 routing_xiaokeche2.7" vType="xiaokeche" speedFactor="0.99" vaporized=""/>
    <tripinfo id="xiaokeche1.12" depart="50.00" departLane="mainlane01_3" departPos="4.10" departSpeed="0.00" departDelay="6.80" arrival="1018.00" arrivalLane="mainlane_16_1" arrivalPos="997.88" arrivalSpeed="13.26" duration="968.00" routeLength="12050.57" waitingTime="0.00" waitingCount="0" stopTime="0.00" timeLoss="134.05" rerouteNo="1" devices="tripinfo_xiaokeche1.12 routing_xiaokeche1.12" vType="xiaokeche" speedFactor="1.04" vaporized=""/>
    <tripinfo id="xiaokeche2.9" depart="33.00" departLane="mainlane01_1" departPos="4.10" departSpeed="0.00" departDelay="0.60" arrival="1019.00" arrivalLane="mainlane_16_0" arrivalPos="997.88" arrivalSpeed="13.18" duration="986.00" routeLength="12050.57" waitingTime="0.00" waitingCount="0" stopTime="0.00" timeLoss="117.12" rerouteNo="1" devices="tripinfo_xiaokeche2.9 routing_xiaokeche2.9" vType="xiaokeche" speedFactor="1.00" vaporized=""/>
    <tripinfo id="xiaokeche2.12" depart="46.00" departLane="mainlane01_2" departPos="4.10" departSpeed="0.00" departDelay="2.80" arrival="1020.00" arrivalLane="mainlane_16_1" arrivalPos="997.88" arrivalSpeed="13.89" duration="974.00" routeLength="12050.57" waitingTime="0.00" waitingCount="0" stopTime="0.00" timeLoss="155.10" rerouteNo="1" devices="tripinfo_xiaokeche2.12 routing_xiaokeche2.12" vType="xiaokeche" speedFactor="1.06" vaporized=""/>
    <tripinfo id="xiaokeche5.11" depart="46.00" departLane="mainlane01_0" departPos="4.10" departSpeed="0.00" departDelay="6.40" arrival="1021.00" arrivalLane="mainlane_16_0" arrivalPos="997.88" arrivalSpeed="13.97" duration="975.00" routeLength="12050.57" waitingTime="0.00" waitingCount="0" stopTime="0.00" timeLoss="116.94" rerouteNo="1" devices="tripinfo_xiaokeche5.11 routing_xiaokeche5.11" vType="xiaokeche" speedFactor="1.01" vaporized=""/>