<?xml version="1.0" encoding="UTF-8"?>

<!-- generated on 2021-11-12 15:56:58 by Eclipse SUMO GUI Version 1.10.0
<configuration xmlns:xsi="http://www.w3.org/2001/XMLSchema-instance" xsi:noNamespaceSchemaLocation="http://sumo.dlr.de/xsd/sumoConfiguration.xsd">

    <input>
        <net-file value="F:\sumo_pro/traci_main\guangshen\guangshen\guangshen_ALL.net.xml"/>
        <route-files value="F:\sumo_pro/traci_main\guangshen\guangshen\guangshen_ALL.rou.xml"/>
    </input>

    <output>
        <tripinfo-output value="F:\sumo_pro\traci_main\guangshen\guangshen/tripinfo2_TEST.xml"/>
    </output>

    <time>
        <begin value="0"/>
        <end value="20000"/>
    </time>

    <report>
        <verbose value="true"/>
        <duration-log.statistics value="true"/>
    </report>

    <traci_server>
        <remote-port value="62088"/>
    </traci_server>

    <gui_only>
        <gui-settings-file value="F:\sumo_pro/traci_main\guangshen\guangshen\gui-settings2.cfg"/>
        <quit-on-end value="false"/>
        <start value="true"/>
    </gui_only>

</configuration>
-->

<tripinfos xmlns:xsi="http://www.w3.org/2001/XMLSchema-instance" xsi:noNamespaceSchemaLocation="http://sumo.dlr.de/xsd/tripinfo_file.xsd">
    <tripinfo id="xiaokeche_taiping_ru.2" depart="4.00" departLane="TP_ZR1_1" departPos="466.61" departSpeed="0.00" departDelay="0.79" arrival="60.00" arrivalLane="mainlane_16_1" arrivalPos="997.78" arrivalSpeed="33.29" duration="56.00" routeLength="1372.31" waitingTime="0.00" waitingCount="0" stopTime="0.00" timeLoss="6.07" rerouteNo="1" devices="tripinfo_xiaokeche_taiping_ru.2 routing_xiaokeche_taiping_ru.2" vType="xiaokeche" speedFactor="1.04" vaporized=""/>
    <tripinfo id="xiaokeche_taiping_ru.3" depart="5.00" departLane="TP_ZR1_1" departPos="551.82" departSpeed="0.00" departDelay="0.18" arrival="62.00" arrivalLane="mainlane_16_0" arrivalPos="997.78" arrivalSpeed="28.13" duration="57.00" routeLength="1287.10" waitingTime="0.00" waitingCount="0" stopTime="0.00" timeLoss="5.55" rerouteNo="1" devices="tripinfo_xiaokeche_taiping_ru.3 routing_xiaokeche_taiping_ru.3" vType="xiaokeche" speedFactor="0.85" vaporized=""/>
    <tripinfo id="tedaxinghuoche_taiping_ru.0" depart="0.00" departLane="TP_ZR1_0" departPos="539.81" departSpeed="0.00" departDelay="0.00" arrival="66.00" arrivalLane="mainlane_16_0" arrivalPos="997.78" arrivalSpeed="27.64" duration="66.00" routeLength="1299.11" waitingTime="0.00" waitingCount="0" stopTime="0.00" timeLoss="14.28" rerouteNo="1" devices="tripinfo_tedaxinghuoche_taiping_ru.0 routing_tedaxinghuoche_taiping_ru.0" vType="tedaxinghuoche" speedFactor="0.96" vaporized=""/>
    <tripinfo id="xiaokeche_taiping_ru.0" depart="0.00" departLane="TP_ZR1_0" departPos="392.97" departSpeed="0.00" departDelay="0.00" arrival="68.00" arrivalLane="mainlane_16_0" arrivalPos="997.78" arrivalSpeed="31.30" duration="68.00" routeLength="1445.95" waitingTime="0.00" waitingCount="0" stopTime="0.00" timeLoss="10.77" rerouteNo="1" devices="tripinfo_xiaokeche_taiping_ru.0 routing_xiaokeche_taiping_ru.0" vType="xiaokeche" speedFactor="0.98" vaporized=""/>
    <tripinfo id="xiaokeche_taiping_ru.8" depart="13.00" departLane="TP_ZR1_1" departPos="531.68" departSpeed="0.00" departDelay="0.15" arrival="69.00" arrivalLane="mainlane_16_0" arrivalPos="997.78" arrivalSpeed="31.56" duration="56.00" routeLength="1307.24" waitingTime="0.00" waitingCount="0" stopTime="0.00" timeLoss="10.65" rerouteNo="1" devices="tripinfo_xiaokeche_taiping_ru.8 routing_xiaokeche_taiping_ru.8" vType="xiaokeche" speedFactor="1.01" vaporized=""/>
    <tripinfo id="xiaokeche_taiping_ru.5" depart="10.00" departLane="TP_ZR1_1" departPos="414.97" departSpeed="0.00" departDelay="1.97" arrival="72.00" arrivalLane="mainlane_16_1" arrivalPos="997.78" arrivalSpeed="31.72" duration="62.00" routeLength="1423.95" waitingTime="0.00" waitingCount="0" stopTime="0.00" timeLoss="7.65" rerouteNo="1" devices="tripinfo_xiaokeche_taiping_ru.5 routing_xiaokeche_taiping_ru.5" vType="xiaokeche" speedFactor="0.99" vaporized=""/>
    <tripinfo id="daxinghuoche_taiping_ru.0" depart="0.00" departLane="TP_ZR1_0" departPos="364.15" departSpeed="0.00" departDelay="0.00" arrival="75.00" arrivalLane="mainlane_16_0" arrivalPos="997.78" arrivalSpeed="27.16" duration="75.00" routeLength="1474.77" waitingTime="0.00" waitingCount="0" stopTime="0.00" timeLoss="9.12" rerouteNo="1" devices="tripinfo_daxinghuoche_taiping_ru.0 routing_daxinghuoche_taiping_ru.0" vType="daxinghuoche" speedFactor="0.94" vaporized=""/>
    <tripinfo id="xiaokeche_taiping_ru.11" depart="18.00" departLane="TP_ZR1_1" departPos="519.91" departSpeed="0.00" departDelay="0.33" arrival="76.00" arrivalLane="mainlane_16_0" arrivalPos="997.78" arrivalSpeed="29.42" duration="58.00" routeLength="1319.01" waitingTime="0.00" waitingCount="0" stopTime="0.00" timeLoss="6.92" rerouteNo="1" devices="tripinfo_xiaokeche_taiping_ru.11 routing_xiaokeche_taiping_ru.11" vType="xiaokeche" speedFactor="0.91" vaporized=""/>
    <tripinfo id="xiaokeche_taiping_ru.4" depart="7.00" departLane="TP_ZR1_1" departPos="368.85" departSpeed="0.00" departDelay="0.58" arrival="79.00" arrivalLane="mainlane_16_1" arrivalPos="997.78" arrivalSpeed="28.94" duration="72.00" routeLength="1470.07" waitingTime="0.00" waitingCount="0" stopTime="0.00" timeLoss="8.14" rerouteNo="1" devices="tripinfo_xiaokeche_taiping_ru.4 routing_xiaokeche_taiping_ru.4" vType="xiaokeche" speedFactor="0.90" vaporized=""/>
    <tripinfo id="xiaoxinghuoche_taiping_ru.0" depart="0.00" departLane="TP_ZR1_0" departPos="294.88" departSpeed="0.00" departDelay="0.00" arrival="80.00" arrivalLane="mainlane_16_0" arrivalPos="997.78" arrivalSpeed="27.76" duration="80.00" routeLength="1544.04" waitingTime="0.00" waitingCount="0" stopTime="0.00" timeLoss="9.66" rerouteNo="1" devices="tripinfo_xiaoxinghuoche_taiping_ru.0 routing_xiaoxinghuoche_taiping_ru.0" vType="xiaoxinghuoche" speedFactor="0.94" vaporized=""/>
    <tripinfo id="xiaokeche_taiping_ru.6" depart="10.00" departLane="TP_ZR1_1" departPos="243.29" departSpeed="0.00" departDelay="0.36" arrival="81.00" arrivalLane="mainlane_16_0" arrivalPos="997.78" arrivalSpeed="31.41" duration="71.00" routeLength="1595.63" waitingTime="0.00" waitingCount="0" stopTime="0.00" timeLoss="6.39" rerouteNo="1" devices="tripinfo_xiaokeche_taiping_ru.6 routing_xiaokeche_taiping_ru.6" vType="xiaokeche" speedFactor="1.04" vaporized=""/>
    <tripinfo id="daxinghuoche_taiping_ru.1" depart="21.00" departLane="TP_ZR1_0" departPos="458.70" departSpeed="0.00" departDelay="0.89" arrival="89.00" arrivalLane="mainlane_16_0" arrivalPos="997.78" arrivalSpeed="27.36" duration="68.00" routeLength="1380.22" waitingTime="0.00" waitingCount="0" stopTime="0.00" timeLoss="9.76" rerouteNo="1" devices="tripinfo_daxinghuoche_taiping_ru.1 routing_daxinghuoche_taiping_ru.1" vType="daxinghuoche" speedFactor="0.96" vaporized=""/>
    <tripinfo id="xiaokeche_taiping_ru.12" depart="20.00" departLane="TP_ZR1_1" departPos="315.73" departSpeed="0.00" departDelay="0.73" arrival="90.00" arrivalLane="mainlane_16_1" arrivalPos="997.78" arrivalSpeed="32.97" duration="70.00" routeLength="1523.19" waitingTime="0.00" waitingCount="0" stopTime="0.00" timeLoss="8.97" rerouteNo="1" devices="tripinfo_xiaokeche_taiping_ru.12 routing_xiaokeche_taiping_ru.12" vType="xiaokeche" speedFactor="1.01" vaporized=""/>
    <tripinfo id="zhongxinghuoche_taiping_ru.0" depart="0.00" departLane="TP_ZR1_0" departPos="176.52" departSpeed="0.00" departDelay="0.00" arrival="92.00" arrivalLane="mainlane_16_0" arrivalPos="997.78" arrivalSpeed="27.69" duration="92.00" routeLength="1662.40" waitingTime="0.00" waitingCount="0" stopTime="0.00" timeLoss="10.62" rerouteNo="1" devices="tripinfo_zhongxinghuoche_taiping_ru.0 routing_zhongxinghuoche_taiping_ru.0" vType="zhongxinghuoche" speedFactor="0.91" vaporized=""/>
    <tripinfo id="xiaokeche_taiping_ru.22" depart="36.00" departLane="TP_ZR1_1" departPos="528.26" departSpeed="0.00" departDelay="0.67" arrival="93.00" arrivalLane="mainlane_16_0" arrivalPos="997.78" arrivalSpeed="28.83" duration="57.00" routeLength="1310.66" waitingTime="0.00" waitingCount="0" stopTime="0.00" timeLoss="6.32" rerouteNo="1" devices="tripinfo_xiaokeche_taiping_ru.22 routing_xiaokeche_taiping_ru.22" vType="xiaokeche" speedFactor="0.90" vaporized=""/>
    <tripinfo id="xiaokeche_taiping_ru.9" depart="15.00" departLane="TP_ZR1_1" departPos="197.10" departSpeed="0.00" departDelay="0.55" arrival="94.00" arrivalLane="mainlane_16_1" arrivalPos="997.78" arrivalSpeed="32.35" duration="79.00" routeLength="1641.82" waitingTime="0.00" waitingCount="0" stopTime="0.00" timeLoss="7.35" rerouteNo="1" devices="tripinfo_xiaokeche_taiping_ru.9 routing_xiaokeche_taiping_ru.9" vType="xiaokeche" speedFactor="0.98" vaporized=""/>
    <tripinfo id="xiaokeche_taiping_ru.7" depart="12.00" departLane="TP_ZR1_1" departPos="209.92" departSpeed="0.00" departDelay="0.76" arrival="95.00" arrivalLane="mainlane_16_0" arrivalPos="997.78" arrivalSpeed="31.28" duration="83.00" routeLength="1629.00" waitingTime="0.00" waitingCount="0" stopTime="0.00" timeLoss="9.29" rerouteNo="1" devices="tripinfo_xiaokeche_taiping_ru.7 routing_xiaokeche_taiping_ru.7" vType="xiaokeche" speedFactor="0.94" vaporized=""/>
    <tripinfo id="xiaokeche_taiping_ru.14" depart="23.00" departLane="TP_ZR1_1" departPos="226.19" departSpeed="0.00" departDelay="0.52" arrival="95.00" arrivalLane="mainlane_16_1" arrivalPos="997.78" arrivalSpeed="32.79" duration="72.00" routeLength="1612.73" waitingTime="0.00" waitingCount="0" stopTime="0.00" timeLoss="10.25" rerouteNo="1" devices="tripinfo_xiaokeche_taiping_ru.14 routing_xiaokeche_taiping_ru.14" vType="xiaokeche" speedFactor="1.18" vaporized=""/>
    <tripinfo id="xiaokeche_taiping_ru.1" depart="2.00" departLane="TP_ZR1_1" departPos="72.08" departSpeed="0.00" departDelay="0.39" arrival="97.00" arrivalLane="mainlane_16_0" arrivalPos="997.78" arrivalSpeed="29.11" duration="95.00" routeLength="1766.84" waitingTime="0.00" waitingCount="0" stopTime="0.00" timeLoss="7.88" rerouteNo="1" devices="tripinfo_xiaokeche_taiping_ru.1 routing_xiaokeche_taiping_ru.1" vType="xiaokeche" speedFactor="0.90" vaporized=""/>
    <tripinfo id="xiaokeche_taiping_ru.28" depart="45.00" departLane="TP_ZR1_1" departPos="506.69" departSpeed="0.00" departDelay="0.03" arrival="98.00" arrivalLane="mainlane_16_1" arrivalPos="997.78" arrivalSpeed="32.77" duration="53.00" routeLength="1332.23" waitingTime="0.00" waitingCount="0" stopTime="0.00" timeLoss="6.00" rerouteNo="1" devices="tripinfo_xiaokeche_taiping_ru.28 routing_xiaokeche_taiping_ru.28" vType="xiaokeche" speedFactor="1.00" vaporized=""/>
    <tripinfo id="dakeche_taiping_ru.0" depart="0.00" departLane="TP_ZR1_0" departPos="26.56" departSpeed="0.00" departDelay="0.00" arrival="102.00" arrivalLane="mainlane_16_0" arrivalPos="997.78" arrivalSpeed="27.65" duration="102.00" routeLength="1812.36" waitingTime="0.00" waitingCount="0" stopTime="0.00" timeLoss="14.03" rerouteNo="1" devices="tripinfo_dakeche_taiping_ru.0 routing_dakeche_taiping_ru.0" vType="dakeche" speedFactor="1.00" vaporized=""/>
    <tripinfo id="xiaokeche_taiping_ru.13" depart="21.00" departLane="TP_ZR1_1" departPos="198.80" departSpeed="0.00" departDelay="0.12" arrival="104.00" arrivalLane="mainlane_16_0" arrivalPos="997.78" arrivalSpeed="31.14" duration="83.00" routeLength="1640.12" waitingTime="0.00" waitingCount="0" stopTime="0.00" timeLoss="10.05" rerouteNo="1" devices="tripinfo_xiaokeche_taiping_ru.13 routing_xiaokeche_taiping_ru.13" vType="xiaokeche" speedFactor="0.96" vaporized=""/>
    <tripinfo id="xiaokeche_taiping_ru.33" depart="53.00" departLane="TP_ZR1_1" departPos="554.43" departSpeed="0.00" departDelay="0.00" arrival="105.00" arrivalLane="mainlane_16_0" arrivalPos="997.78" arrivalSpeed="31.98" duration="52.00" routeLength="1284.49" waitingTime="0.00" waitingCount="0" stopTime="0.00" timeLoss="6.74" rerouteNo="1" devices="tripinfo_xiaokeche_taiping_ru.33 routing_xiaokeche_taiping_ru.33" vType="xiaokeche" speedFactor="0.97" vaporized=""/>
    <tripinfo id="xiaokeche_taiping_ru.18" depart="30.00" departLane="TP_ZR1_1" departPos="226.74" departSpeed="0.00" departDelay="1.09" arrival="106.00" arrivalLane="mainlane_16_1" arrivalPos="997.78" arrivalSpeed="32.29" duration="76.00" routeLength="1612.18" waitingTime="0.00" waitingCount="0" stopTime="0.00" timeLoss="14.06" rerouteNo="1" devices="tripinfo_xiaokeche_taiping_ru.18 routing_xiaokeche_taiping_ru.18" vType="xiaokeche" speedFactor="1.16" vaporized=""/>
    <tripinfo id="xiaokeche_taiping_ru.20" depart="34.00" departLane="TP_ZR1_1" departPos="291.41" departSpeed="0.00" departDelay="1.88" arrival="106.00" arrivalLane="mainlane_16_0" arrivalPos="997.78" arrivalSpeed="31.46" duration="72.00" routeLength="1547.51" waitingTime="0.00" waitingCount="0" stopTime="0.00" timeLoss="12.82" rerouteNo="1" devices="tripinfo_xiaokeche_taiping_ru.20 routing_xiaokeche_taiping_ru.20" vType="xiaokeche" speedFactor="1.12" vaporized=""/>
    <tripinfo id="xiaokeche_taiping_ru.32" depart="52.00" departLane="TP_ZR1_1" departPos="536.56" departSpeed="0.00" departDelay="0.61" arrival="107.00" arrivalLane="mainlane_16_0" arrivalPos="997.78" arrivalSpeed="31.50" duration="55.00" routeLength="1302.36" waitingTime="0.00" waitingCount="0" stopTime="0.00" timeLoss="9.60" rerouteNo="1" devices="tripinfo_xiaokeche_taiping_ru.32 routing_xiaokeche_taiping_ru.32" vType="xiaokeche" speedFactor="0.99" vaporized=""/>
    <tripinfo id="xiaokeche_taiping_ru.16" depart="26.00" departLane="TP_ZR1_1" departPos="144.00" departSpeed="0.00" departDelay="0.30" arrival="109.00" arrivalLane="mainlane_16_1" arrivalPos="997.78" arrivalSpeed="32.78" duration="83.00" routeLength="1694.92" waitingTime="0.00" waitingCount="0" stopTime="0.00" timeLoss="10.88" rerouteNo="1" devices="tripinfo_xiaokeche_taiping_ru.16 routing_xiaokeche_taiping_ru.16" vType="xiaokeche" speedFactor="1.03" vaporized=""/>
    <tripinfo id="xiaokeche_taiping_ru.15" depart="25.00" departLane="TP_ZR1_1" departPos="90.61" departSpeed="0.00" departDelay="0.91" arrival="111.00" arrivalLane="mainlane_16_1" arrivalPos="997.78" arrivalSpeed="32.05" duration="86.00" routeLength="1748.31" waitingTime="0.00" waitingCount="0" stopTime="0.00" timeLoss="9.66" rerouteNo="1" devices="tripinfo_xiaokeche_taiping_ru.15 routing_xiaokeche_taiping_ru.15" vType="xiaokeche" speedFactor="1.03" vaporized=""/>
    <tripinfo id="xiaokeche_taiping_ru.26" depart="42.00" departLane="TP_ZR1_1" departPos="392.46" departSpeed="0.00" departDelay="0.24" arrival="113.00" arrivalLane="mainlane_16_0" arrivalPos="997.78" arrivalSpeed="28.95" duration="71.00" routeLength="1446.46" waitingTime="0.00" waitingCount="0" stopTime="0.00" timeLoss="6.94" rerouteNo="1" devices="tripinfo_xiaokeche_taiping_ru.26 routing_xiaokeche_taiping_ru.26" vType="xiaokeche" speedFactor="0.87" vaporized=""/>
    <tripinfo id="xiaokeche_taiping_ru.35" depart="59.00" departLane="TP_ZR1_1" departPos="469.76" departSpeed="0.00" departDelay="2.79" arrival="113.00" arrivalLane="mainlane_16_1" arrivalPos="997.78" arrivalSpeed="32.48" duration="54.00" routeLength="1369.16" waitingTime="0.00" waitingCount="0" stopTime="0.00" timeLoss="6.56" rerouteNo="1" devices="tripinfo_xiaokeche_taiping_ru.35 routing_xiaokeche_taiping_ru.35" vType="xiaokeche" speedFactor="1.13" vaporized=""/>
    <tripinfo id="xiaokeche_taiping_ru.24" depart="40.00" departLane="TP_ZR1_0" departPos="347.37" departSpeed="0.00" departDelay="1.46" arrival="114.00" arrivalLane="mainlane_16_0" arrivalPos="997.78" arrivalSpeed="29.85" duration="74.00" routeLength="1491.55" waitingTime="0.00" waitingCount="0" stopTime="0.00" timeLoss="9.85" rerouteNo="1" devices="tripinfo_xiaokeche_taiping_ru.24 routing_xiaokeche_taiping_ru.24" vType="xiaokeche" speedFactor="0.92" vaporized=""/>
    <tripinfo id="xiaokeche_taiping_ru.17" depart="28.00" departLane="TP_ZR1_1" departPos="231.85" departSpeed="0.00" departDelay="0.70" arrival="115.00" arrivalLane="mainlane_16_0" arrivalPos="997.78" arrivalSpeed="30.72" duration="87.00" routeLength="1607.07" waitingTime="0.00" waitingCount="0" stopTime="0.00" timeLoss="20.02" rerouteNo="1" devices="tripinfo_xiaokeche_taiping_ru.17 routing_xiaokeche_taiping_ru.17" vType="xiaokeche" speedFactor="1.00" vaporized=""/>
    <tripinfo id="xiaokeche_taiping_ru.29" depart="47.00" departLane="TP_ZR1_1" departPos="297.38" departSpeed="0.00" departDelay="0.43" arrival="117.00" arrivalLane="mainlane_16_1" arrivalPos="997.78" arrivalSpeed="33.19" duration="70.00" routeLength="1541.54" waitingTime="0.00" waitingCount="0" stopTime="0.00" timeLoss="7.63" rerouteNo="1" devices="tripinfo_xiaokeche_taiping_ru.29 routing_xiaokeche_taiping_ru.29" vType="xiaokeche" speedFactor="1.00" vaporized=""/>
    <tripinfo id="xiaoxinghuoche_taiping_ru.1" depart="26.00" departLane="TP_ZR1_0" departPos="184.43" departSpeed="0.00" departDelay="1.51" arrival="119.00" arrivalLane="mainlane_16_0" arrivalPos="997.78" arrivalSpeed="27.48" duration="93.00" routeLength="1654.49" waitingTime="0.00" waitingCount="0" stopTime="0.00" timeLoss="12.63" rerouteNo="1" devices="tripinfo_xiaoxinghuoche_taiping_ru.1 routing_xiaoxinghuoche_taiping_ru.1" vType="xiaoxinghuoche" speedFactor="0.91" vaporized=""/>
    <tripinfo id="xiaokeche_taiping_ru.10" depart="17.00" departLane="TP_ZR1_1" departPos="24.49" departSpeed="0.00" departDelay="0.94" arrival="120.00" arrivalLane="mainlane_16_0" arrivalPos="997.78" arrivalSpeed="29.76" duration="103.00" routeLength="1814.43" waitingTime="0.00" waitingCount="0" stopTime="0.00" timeLoss="14.15" rerouteNo="1" devices="tripinfo_xiaokeche_taiping_ru.10 routing_xiaokeche_taiping_ru.10" vType="xiaokeche" speedFactor="0.92" vaporized=""/>
    <tripinfo id="xiaokeche_taiping_ru.19" depart="31.00" departLane="TP_ZR1_1" departPos="108.07" departSpeed="0.00" departDelay="0.49" arrival="122.00" arrivalLane="mainlane_16_0" arrivalPos="997.78" arrivalSpeed="31.22" duration="91.00" routeLength="1730.85" waitingTime="0.00" waitingCount="0" stopTime="0.00" timeLoss="12.19" rerouteNo="1" devices="tripinfo_xiaokeche_taiping_ru.19 routing_xiaokeche_taiping_ru.19" vType="xiaokeche" speedFactor="0.97" vaporized=""/>
    <tripinfo id="xiaokeche_taiping_ru.36" depart="59.00" departLane="TP_ZR1_1" departPos="404.12" departSpeed="0.00" departDelay="1.18" arrival="123.00" arrivalLane="mainlane_16_0" arrivalPos="997.78" arrivalSpeed="31.51" duration="64.00" routeLength="1434.80" waitingTime="0.00" waitingCount="0" stopTime="0.00" timeLoss="7.05" rerouteNo="1" devices="tripinfo_xiaokeche_taiping_ru.36 routing_xiaokeche_taiping_ru.36" vType="xiaokeche" speedFactor="0.96" vaporized=""/>
    <tripinfo id="xiaokeche_taiping_ru.42" depart="69.00" departLane="TP_ZR1_1" departPos="494.13" departSpeed="0.00" departDelay="1.55" arrival="123.00" arrivalLane="mainlane_16_1" arrivalPos="997.78" arrivalSpeed="32.31" duration="54.00" routeLength="1344.79" waitingTime="0.00" waitingCount="0" stopTime="0.00" timeLoss="6.35" rerouteNo="1" devices="tripinfo_xiaokeche_taiping_ru.42 routing_xiaokeche_taiping_ru.42" vType="xiaokeche" speedFactor="1.05" vaporized=""/>
    <tripinfo id="xiaokeche_taiping_ru.38" depart="62.00" departLane="TP_ZR1_1" departPos="373.11" departSpeed="0.00" departDelay="0.97" arrival="124.00" arrivalLane="mainlane_16_1" arrivalPos="997.78" arrivalSpeed="32.47" duration="62.00" routeLength="1465.81" waitingTime="0.00" waitingCount="0" stopTime="0.00" timeLoss="7.26" rerouteNo="1" devices="tripinfo_xiaokeche_taiping_ru.38 routing_xiaokeche_taiping_ru.38" vType="xiaokeche" speedFactor="1.08" vaporized=""/>
    <tripinfo id="xiaokeche_taiping_ru.34" depart="55.00" departLane="TP_ZR1_1" departPos="299.72" departSpeed="0.00" departDelay="0.40" arrival="129.00" arrivalLane="mainlane_16_1" arrivalPos="997.78" arrivalSpeed="31.53" duration="74.00" routeLength="1539.20" waitingTime="0.00" waitingCount="0" stopTime="0.00" timeLoss="9.72" rerouteNo="1" devices="tripinfo_xiaokeche_taiping_ru.34 routing_xiaokeche_taiping_ru.34" vType="xiaokeche" speedFactor="0.96" vaporized=""/>
    <tripinfo id="xiaoxinghuoche_taiping_ru.2" depart="53.00" departLane="TP_ZR1_0" departPos="322.99" departSpeed="0.00" departDelay="4.02" arrival="130.00" arrivalLane="mainlane_16_0" arrivalPos="997.78" arrivalSpeed="27.58" duration="77.00" routeLength="1515.93" waitingTime="0.00" waitingCount="0" stopTime="0.00" timeLoss="9.78" rerouteNo="1" devices="tripinfo_xiaoxinghuoche_taiping_ru.2 routing_xiaoxinghuoche_taiping_ru.2" vType="xiaoxinghuoche" speedFactor="0.98" vaporized=""/>
    <tripinfo id="xiaokeche_taiping_ru.21" depart="36.00" departLane="TP_ZR1_1" departPos="6.38" departSpeed="0.00" departDelay="2.27" arrival="131.00" arrivalLane="mainlane_16_1" arrivalPos="997.78" arrivalSpeed="32.20" duration="95.00" routeLength="1832.54" waitingTime="0.00" waitingCount="0" stopTime="0.00" timeLoss="13.93" rerouteNo="1" devices="tripinfo_xiaokeche_taiping_ru.21 routing_xiaokeche_taiping_ru.21" vType="xiaokeche" speedFactor="1.05" vaporized=""/>
    <tripinfo id="daxinghuoche_taiping_ru.2" depart="41.00" departLane="TP_ZR1_0" departPos="200.58" departSpeed="0.00" departDelay="0.78" arrival="134.00" arrivalLane="mainlane_16_0" arrivalPos="997.78" arrivalSpeed="27.61" duration="93.00" routeLength="1638.34" waitingTime="0.00" waitingCount="0" stopTime="0.00" timeLoss="14.10" rerouteNo="1" devices="tripinfo_daxinghuoche_taiping_ru.2 routing_daxinghuoche_taiping_ru.2" vType="daxinghuoche" speedFactor="0.92" vaporized=""/>
    <tripinfo id="xiaokeche_taiping_ru.51" depart="82.00" departLane="TP_ZR1_1" departPos="496.62" departSpeed="0.00" departDelay="0.09" arrival="134.00" arrivalLane="mainlane_16_1" arrivalPos="997.78" arrivalSpeed="32.21" duration="52.00" routeLength="1342.30" waitingTime="0.00" waitingCount="0" stopTime="0.00" timeLoss="5.94" rerouteNo="1" devices="tripinfo_xiaokeche_taiping_ru.51 routing_xiaokeche_taiping_ru.51" vType="xiaokeche" speedFactor="1.11" vaporized=""/>
    <tripinfo id="xiaokeche_houjienan_chu.0" depart="0.00" departLane="mainlane01_1" departPos="121.74" departSpeed="0.00" departDelay="0.00" arrival="135.00" arrivalLane="HJN_ZC1_0" arrivalPos="42.55" arrivalSpeed="14.73" duration="135.00" routeLength="3534.77" waitingTime="0.00" waitingCount="0" stopTime="0.00" timeLoss="10.13" rerouteNo="1" devices="tripinfo_xiaokeche_houjienan_chu.0 routing_xiaokeche_houjienan_chu.0" vType="xiaokeche" speedFactor="0.89" vaporized=""/>
    <tripinfo id="xiaokeche_taiping_ru.23" depart="37.00" departLane="TP_ZR1_0" departPos="105.60" departSpeed="0.00" departDelay="0.06" arrival="136.00" arrivalLane="mainlane_16_0" arrivalPos="997.78" arrivalSpeed="31.04" duration="99.00" routeLength="1733.32" waitingTime="0.00" waitingCount="0" stopTime="0.00" timeLoss="23.66" rerouteNo="1" devices="tripinfo_xiaokeche_taiping_ru.23 routing_xiaokeche_taiping_ru.23" vType="xiaokeche" speedFactor="1.03" vaporized=""/>
    <tripinfo id="xiaokeche_taiping_ru.41" depart="66.00" departLane="TP_ZR1_1" departPos="347.66" departSpeed="0.00" departDelay="0.15" arrival="137.00" arrivalLane="mainlane_16_0" arrivalPos="997.78" arrivalSpeed="31.54" duration="71.00" routeLength="1491.26" waitingTime="0.00" waitingCount="0" stopTime="0.00" timeLoss="11.16" rerouteNo="1" devices="tripinfo_xiaokeche_taiping_ru.41 routing_xiaokeche_taiping_ru.41" vType="xiaokeche" speedFactor="0.98" vaporized=""/>
    <tripinfo id="xiaokeche_taiping_ru.48" depart="81.00" departLane="TP_ZR1_1" departPos="475.36" departSpeed="0.00" departDelay="3.91" arrival="137.00" arrivalLane="mainlane_16_1" arrivalPos="997.78" arrivalSpeed="33.12" duration="56.00" routeLength="1363.56" waitingTime="0.00" waitingCount="0" stopTime="0.00" timeLoss="6.82" rerouteNo="1" devices="tripinfo_xiaokeche_taiping_ru.48 routing_xiaokeche_taiping_ru.48" vType="xiaokeche" speedFactor="1.02" vaporized=""/>
    <tripinfo id="xiaokeche_taiping_ru.27" depart="44.00" departLane="TP_ZR1_1" departPos="64.66" departSpeed="0.00" departDelay="0.64" arrival="138.00" arrivalLane="mainlane_16_0" arrivalPos="997.78" arrivalSpeed="30.20" duration="94.00" routeLength="1774.26" waitingTime="0.00" waitingCount="0" stopTime="0.00" timeLoss="11.88" rerouteNo="1" devices="tripinfo_xiaokeche_taiping_ru.27 routing_xiaokeche_taiping_ru.27" vType="xiaokeche" speedFactor="0.96" vaporized=""/>
    <tripinfo id="xiaokeche_xinlian_ru.0" depart="0.00" departLane="XL_ZR2_1" departPos="122.81" departSpeed="0.00" departDelay="0.00" arrival="139.00" arrivalLane="mainlane_16_3" arrivalPos="997.78" arrivalSpeed="30.10" duration="139.00" routeLength="3863.53" waitingTime="0.00" waitingCount="0" stopTime="0.00" timeLoss="7.69" rerouteNo="1" devices="tripinfo_xiaokeche_xinlian_ru.0 routing_xiaokeche_xinlian_ru.0" vType="xiaokeche" speedFactor="0.94" vaporized=""/>
    <tripinfo id="xiaokeche_houjienan_chu.1" depart="3.00" departLane="mainlane01_1" departPos="49.82" departSpeed="0.00" departDelay="0.58" arrival="140.00" arrivalLane="HJN_ZC1_1" arrivalPos="42.55" arrivalSpeed="18.00" duration="137.00" routeLength="3606.69" waitingTime="0.00" waitingCount="0" stopTime="0.00" timeLoss="24.91" rerouteNo="1" devices="tripinfo_xiaokeche_houjienan_chu.1 routing_xiaokeche_houjienan_chu.1" vType="xiaokeche" speedFactor="1.09" vaporized=""/>
    <tripinfo id="xiaokeche_taiping_ru.30" depart="51.00" departLane="TP_ZR1_1" departPos="73.64" departSpeed="0.00" departDelay="2.82" arrival="140.00" arrivalLane="mainlane_16_1" arrivalPos="997.78" arrivalSpeed="32.96" duration="89.00" routeLength="1765.28" waitingTime="0.00" waitingCount="0" stopTime="0.00" timeLoss="16.30" rerouteNo="1" devices="tripinfo_xiaokeche_taiping_ru.30 routing_xiaokeche_taiping_ru.30" vType="xiaokeche" speedFactor="1.14" vaporized=""/>
    <tripinfo id="xiaokeche_taiping_ru.37" depart="60.00" departLane="TP_ZR1_1" departPos="216.67" departSpeed="0.00" departDelay="0.58" arrival="140.00" arrivalLane="mainlane_16_0" arrivalPos="997.78" arrivalSpeed="31.54" duration="80.00" routeLength="1622.25" waitingTime="0.00" waitingCount="0" stopTime="0.00" timeLoss="10.07" rerouteNo="1" devices="tripinfo_xiaokeche_taiping_ru.37 routing_xiaokeche_taiping_ru.37" vType="xiaokeche" speedFactor="0.98" vaporized=""/>
    <tripinfo id="xiaokeche_taiping_ru.31" depart="51.00" departLane="TP_ZR1_1" departPos="100.12" departSpeed="0.00" departDelay="1.21" arrival="141.00" arrivalLane="mainlane_16_0" arrivalPos="997.78" arrivalSpeed="30.88" duration="90.00" routeLength="1738.80" waitingTime="0.00" waitingCount="0" stopTime="0.00" timeLoss="15.04" rerouteNo="1" devices="tripinfo_xiaokeche_taiping_ru.31 routing_xiaokeche_taiping_ru.31" vType="xiaokeche" speedFactor="1.04" vaporized=""/>
    <tripinfo id="xiaokeche_houjienan_chu.2" depart="5.00" departLane="mainlane01_2" departPos="154.41" departSpeed="0.00" departDelay="0.16" arrival="143.00" arrivalLane="HJN_ZC1_0" arrivalPos="42.55" arrivalSpeed="14.23" duration="138.00" routeLength="3502.10" waitingTime="0.00" waitingCount="0" stopTime="0.00" timeLoss="12.86" rerouteNo="1" devices="tripinfo_xiaokeche_houjienan_chu.2 routing_xiaokeche_houjienan_chu.2" vType="xiaokeche" speedFactor="0.88" vaporized=""/>
    <tripinfo id="xiaokeche_taiping_ru.44" depart="74.00" departLane="TP_ZR1_1" departPos="402.71" departSpeed="0.00" departDelay="3.34" arrival="146.00" arrivalLane="mainlane_16_0" arrivalPos="997.78" arrivalSpeed="27.72" duration="72.00" routeLength="1436.21" waitingTime="0.00" waitingCount="0" stopTime="0.00" timeLoss="8.12" rerouteNo="1" devices="tripinfo_xiaokeche_taiping_ru.44 routing_xiaokeche_taiping_ru.44" vType="xiaokeche" speedFactor="0.87" vaporized=""/>
    <tripinfo id="xiaokeche_taiping_ru.58" depart="96.00" departLane="TP_ZR1_1" departPos="514.36" departSpeed="0.00" departDelay="2.85" arrival="148.00" arrivalLane="mainlane_16_1" arrivalPos="997.78" arrivalSpeed="32.55" duration="52.00" routeLength="1324.56" waitingTime="0.00" waitingCount="0" stopTime="0.00" timeLoss="6.68" rerouteNo="1" devices="tripinfo_xiaokeche_taiping_ru.58 routing_xiaokeche_taiping_ru.58" vType="xiaokeche" speedFactor="1.13" vaporized=""/>
    <tripinfo id="daxinghuoche_taiping_ru.3" depart="62.00" departLane="TP_ZR1_0" departPos="228.86" departSpeed="0.00" departDelay="1.66" arrival="149.00" arrivalLane="mainlane_16_0" arrivalPos="997.78" arrivalSpeed="27.16" duration="87.00" routeLength="1610.06" waitingTime="0.00" waitingCount="0" stopTime="0.00" timeLoss="13.03" rerouteNo="1" devices="tripinfo_daxinghuoche_taiping_ru.3 routing_daxinghuoche_taiping_ru.3" vType="daxinghuoche" speedFactor="0.98" vaporized=""/>
    <tripinfo id="xiaoxinghuoche_houjienan_chu.0" depart="1.00" departLane="mainlane01_0" departPos="121.52" departSpeed="0.00" departDelay="1.00" arrival="150.00" arrivalLane="HJN_ZC1_0" arrivalPos="42.55" arrivalSpeed="16.09" duration="149.00" routeLength="3534.99" waitingTime="0.00" waitingCount="0" stopTime="0.00" timeLoss="18.53" rerouteNo="1" devices="tripinfo_xiaoxinghuoche_houjienan_chu.0 routing_xiaoxinghuoche_houjienan_chu.0" vType="xiaoxinghuoche" speedFactor="0.97" vaporized=""/>
    <tripinfo id="dakeche_taiping_ru.1" depart="52.00" departLane="TP_ZR1_0" departPos="141.65" departSpeed="0.00" departDelay="3.35" arrival="151.00" arrivalLane="mainlane_16_0" arrivalPos="997.78" arrivalSpeed="27.26" duration="99.00" routeLength="1697.27" waitingTime="0.00" waitingCount="0" stopTime="0.00" timeLoss="19.18" rerouteNo="1" devices="tripinfo_dakeche_taiping_ru.1 routing_dakeche_taiping_ru.1" vType="dakeche" speedFactor="1.00" vaporized=""/>