<?xml version="1.0" encoding="UTF-8"?>

<!-- generated on 2021-11-12 15:29:42 by Eclipse SUMO GUI Version 1.10.0
<configuration xmlns:xsi="http://www.w3.org/2001/XMLSchema-instance" xsi:noNamespaceSchemaLocation="http://sumo.dlr.de/xsd/sumoConfiguration.xsd">

    <input>
        <net-file value="F:\sumo_pro/traci_main\guangshen\guangshen\guangshen_ALL.net.xml"/>
        <route-files value="F:\sumo_pro/traci_main\guangshen\guangshen\guangshen_ALL.rou.xml"/>
    </input>

    <output>
        <tripinfo-output value="F:\sumo_pro\traci_main\guangshen\guangshen/tripinfo2_TEST.xml"/>
    </output>

    <time>
        <begin value="0"/>
        <end value="20000"/>
    </time>

    <report>
        <verbose value="true"/>
        <duration-log.statistics value="true"/>
    </report>

    <traci_server>
        <remote-port value="49852"/>
    </traci_server>

    <gui_only>
        <gui-settings-file value="F:\sumo_pro/traci_main\guangshen\guangshen\gui-settings2.cfg"/>
        <quit-on-end value="false"/>
        <start value="true"/>
    </gui_only>

</configuration>
-->

<tripinfos xmlns:xsi="http://www.w3.org/2001/XMLSchema-instance" xsi:noNamespaceSchemaLocation="http://sumo.dlr.de/xsd/tripinfo_file.xsd">
    <tripinfo id="xiaokeche_taiping_ru.3" depart="5.00" departLane="TP_ZR1_1" departPos="551.82" departSpeed="0.00" departDelay="0.18" arrival="61.00" arrivalLane="mainlane_16_3" arrivalPos="997.78" arrivalSpeed="28.43" duration="56.00" routeLength="1287.10" waitingTime="0.00" waitingCount="0" stopTime="0.00" timeLoss="4.73" rerouteNo="1" devices="tripinfo_xiaokeche_taiping_ru.3 routing_xiaokeche_taiping_ru.3" vType="xiaokeche" speedFactor="0.85" vaporized=""/>
    <tripinfo id="xiaokeche_taiping_ru.2" depart="4.00" departLane="TP_ZR1_1" departPos="466.61" departSpeed="0.00" departDelay="0.79" arrival="63.00" arrivalLane="mainlane_16_3" arrivalPos="997.78" arrivalSpeed="32.65" duration="59.00" routeLength="1372.31" waitingTime="0.00" waitingCount="0" stopTime="0.00" timeLoss="9.08" rerouteNo="1" devices="tripinfo_xiaokeche_taiping_ru.2 routing_xiaokeche_taiping_ru.2" vType="xiaokeche" speedFactor="1.04" vaporized=""/>
    <tripinfo id="xiaokeche_taiping_ru.0" depart="0.00" departLane="TP_ZR1_0" departPos="392.97" departSpeed="0.00" departDelay="0.00" arrival="64.00" arrivalLane="mainlane_16_3" arrivalPos="997.78" arrivalSpeed="31.70" duration="64.00" routeLength="1445.95" waitingTime="0.00" waitingCount="0" stopTime="0.00" timeLoss="7.29" rerouteNo="1" devices="tripinfo_xiaokeche_taiping_ru.0 routing_xiaokeche_taiping_ru.0" vType="xiaokeche" speedFactor="0.98" vaporized=""/>
    <tripinfo id="tedaxinghuoche_taiping_ru.0" depart="0.00" departLane="TP_ZR1_0" departPos="539.81" departSpeed="0.00" departDelay="0.00" arrival="64.00" arrivalLane="mainlane_16_0" arrivalPos="997.78" arrivalSpeed="27.67" duration="64.00" routeLength="1299.11" waitingTime="0.00" waitingCount="0" stopTime="0.00" timeLoss="12.23" rerouteNo="1" devices="tripinfo_tedaxinghuoche_taiping_ru.0 routing_tedaxinghuoche_taiping_ru.0" vType="tedaxinghuoche" speedFactor="0.96" vaporized=""/>
    <tripinfo id="xiaokeche_taiping_ru.10" depart="17.00" departLane="TP_ZR1_1" departPos="519.91" departSpeed="0.00" departDelay="0.94" arrival="73.00" arrivalLane="mainlane_16_3" arrivalPos="997.78" arrivalSpeed="29.67" duration="56.00" routeLength="1319.01" waitingTime="0.00" waitingCount="0" stopTime="0.00" timeLoss="5.52" rerouteNo="1" devices="tripinfo_xiaokeche_taiping_ru.10 routing_xiaokeche_taiping_ru.10" vType="xiaokeche" speedFactor="0.92" vaporized=""/>
    <tripinfo id="xiaokeche_taiping_ru.9" depart="16.00" departLane="TP_ZR1_1" departPos="507.02" departSpeed="0.00" departDelay="1.55" arrival="74.00" arrivalLane="mainlane_16_3" arrivalPos="997.78" arrivalSpeed="31.82" duration="58.00" routeLength="1331.90" waitingTime="0.00" waitingCount="0" stopTime="0.00" timeLoss="9.75" rerouteNo="1" devices="tripinfo_xiaokeche_taiping_ru.9 routing_xiaokeche_taiping_ru.9" vType="xiaokeche" speedFactor="0.98" vaporized=""/>
    <tripinfo id="daxinghuoche_taiping_ru.0" depart="0.00" departLane="TP_ZR1_0" departPos="364.15" departSpeed="0.00" departDelay="0.00" arrival="75.00" arrivalLane="mainlane_16_0" arrivalPos="997.78" arrivalSpeed="27.49" duration="75.00" routeLength="1474.77" waitingTime="0.00" waitingCount="0" stopTime="0.00" timeLoss="9.55" rerouteNo="1" devices="tripinfo_daxinghuoche_taiping_ru.0 routing_daxinghuoche_taiping_ru.0" vType="daxinghuoche" speedFactor="0.94" vaporized=""/>
    <tripinfo id="xiaokeche_taiping_ru.8" depart="13.00" departLane="TP_ZR1_1" departPos="408.57" departSpeed="0.00" departDelay="0.15" arrival="76.00" arrivalLane="mainlane_16_3" arrivalPos="997.78" arrivalSpeed="32.40" duration="63.00" routeLength="1430.35" waitingTime="0.00" waitingCount="0" stopTime="0.00" timeLoss="8.62" rerouteNo="1" devices="tripinfo_xiaokeche_taiping_ru.8 routing_xiaokeche_taiping_ru.8" vType="xiaokeche" speedFactor="1.01" vaporized=""/>
    <tripinfo id="xiaoxinghuoche_taiping_ru.0" depart="0.00" departLane="TP_ZR1_0" departPos="294.88" departSpeed="0.00" departDelay="0.00" arrival="80.00" arrivalLane="mainlane_16_0" arrivalPos="997.78" arrivalSpeed="27.38" duration="80.00" routeLength="1544.04" waitingTime="0.00" waitingCount="0" stopTime="0.00" timeLoss="10.00" rerouteNo="1" devices="tripinfo_xiaoxinghuoche_taiping_ru.0 routing_xiaoxinghuoche_taiping_ru.0" vType="xiaoxinghuoche" speedFactor="0.94" vaporized=""/>
    <tripinfo id="xiaokeche_taiping_ru.12" depart="22.00" departLane="TP_ZR1_1" departPos="450.70" departSpeed="0.00" departDelay="2.73" arrival="80.00" arrivalLane="mainlane_16_3" arrivalPos="997.78" arrivalSpeed="32.29" duration="58.00" routeLength="1388.22" waitingTime="0.00" waitingCount="0" stopTime="0.00" timeLoss="6.45" rerouteNo="1" devices="tripinfo_xiaokeche_taiping_ru.12 routing_xiaokeche_taiping_ru.12" vType="xiaokeche" speedFactor="1.01" vaporized=""/>
    <tripinfo id="xiaokeche_taiping_ru.6" depart="11.00" departLane="TP_ZR1_1" departPos="294.80" departSpeed="0.00" departDelay="1.36" arrival="83.00" arrivalLane="mainlane_16_3" arrivalPos="997.78" arrivalSpeed="33.32" duration="72.00" routeLength="1544.12" waitingTime="0.00" waitingCount="0" stopTime="0.00" timeLoss="10.20" rerouteNo="1" devices="tripinfo_xiaokeche_taiping_ru.6 routing_xiaokeche_taiping_ru.6" vType="xiaokeche" speedFactor="1.04" vaporized=""/>
    <tripinfo id="xiaokeche_taiping_ru.16" depart="27.00" departLane="TP_ZR1_1" departPos="424.83" departSpeed="0.00" departDelay="1.30" arrival="85.00" arrivalLane="mainlane_16_3" arrivalPos="997.78" arrivalSpeed="32.40" duration="58.00" routeLength="1414.09" waitingTime="0.00" waitingCount="0" stopTime="0.00" timeLoss="5.59" rerouteNo="1" devices="tripinfo_xiaokeche_taiping_ru.16 routing_xiaokeche_taiping_ru.16" vType="xiaokeche" speedFactor="1.03" vaporized=""/>
    <tripinfo id="daxinghuoche_taiping_ru.1" depart="22.00" departLane="TP_ZR1_0" departPos="484.99" departSpeed="0.00" departDelay="1.89" arrival="87.00" arrivalLane="mainlane_16_0" arrivalPos="997.78" arrivalSpeed="27.58" duration="65.00" routeLength="1353.93" waitingTime="0.00" waitingCount="0" stopTime="0.00" timeLoss="8.92" rerouteNo="1" devices="tripinfo_daxinghuoche_taiping_ru.1 routing_daxinghuoche_taiping_ru.1" vType="daxinghuoche" speedFactor="0.96" vaporized=""/>
    <tripinfo id="zhongxinghuoche_taiping_ru.0" depart="0.00" departLane="TP_ZR1_0" departPos="176.52" departSpeed="0.00" departDelay="0.00" arrival="92.00" arrivalLane="mainlane_16_0" arrivalPos="997.78" arrivalSpeed="27.42" duration="92.00" routeLength="1662.40" waitingTime="0.00" waitingCount="0" stopTime="0.00" timeLoss="10.64" rerouteNo="1" devices="tripinfo_zhongxinghuoche_taiping_ru.0 routing_zhongxinghuoche_taiping_ru.0" vType="zhongxinghuoche" speedFactor="0.91" vaporized=""/>
    <tripinfo id="xiaokeche_taiping_ru.5" depart="9.00" departLane="TP_ZR1_1" departPos="119.09" departSpeed="0.00" departDelay="0.97" arrival="93.00" arrivalLane="mainlane_16_3" arrivalPos="997.78" arrivalSpeed="32.05" duration="84.00" routeLength="1719.83" waitingTime="0.00" waitingCount="0" stopTime="0.00" timeLoss="7.18" rerouteNo="1" devices="tripinfo_xiaokeche_taiping_ru.5 routing_xiaokeche_taiping_ru.5" vType="xiaokeche" speedFactor="0.99" vaporized=""/>
    <tripinfo id="xiaokeche_taiping_ru.13" depart="27.00" departLane="TP_ZR1_1" departPos="382.91" departSpeed="0.00" departDelay="6.12" arrival="99.00" arrivalLane="mainlane_16_3" arrivalPos="997.78" arrivalSpeed="31.56" duration="72.00" routeLength="1456.01" waitingTime="0.00" waitingCount="0" stopTime="0.00" timeLoss="13.67" rerouteNo="1" devices="tripinfo_xiaokeche_taiping_ru.13 routing_xiaokeche_taiping_ru.13" vType="xiaokeche" speedFactor="0.96" vaporized=""/>
    <tripinfo id="daxinghuoche_taiping_ru.2" depart="41.00" departLane="TP_ZR1_0" departPos="568.42" departSpeed="0.00" departDelay="0.78" arrival="102.00" arrivalLane="mainlane_16_0" arrivalPos="997.78" arrivalSpeed="27.60" duration="61.00" routeLength="1270.50" waitingTime="0.00" waitingCount="0" stopTime="0.00" timeLoss="10.79" rerouteNo="1" devices="tripinfo_daxinghuoche_taiping_ru.2 routing_daxinghuoche_taiping_ru.2" vType="daxinghuoche" speedFactor="0.92" vaporized=""/>
    <tripinfo id="xiaokeche_taiping_ru.26" depart="44.00" departLane="TP_ZR1_1" departPos="517.75" departSpeed="0.00" departDelay="2.24" arrival="103.00" arrivalLane="mainlane_16_3" arrivalPos="997.78" arrivalSpeed="28.28" duration="59.00" routeLength="1321.17" waitingTime="0.00" waitingCount="0" stopTime="0.00" timeLoss="5.30" rerouteNo="1" devices="tripinfo_xiaokeche_taiping_ru.26 routing_xiaokeche_taiping_ru.26" vType="xiaokeche" speedFactor="0.87" vaporized=""/>
    <tripinfo id="xiaokeche_taiping_ru.1" depart="2.00" departLane="TP_ZR1_1" departPos="72.08" departSpeed="0.00" departDelay="0.39" arrival="104.00" arrivalLane="mainlane_16_3" arrivalPos="997.78" arrivalSpeed="29.83" duration="102.00" routeLength="1766.84" waitingTime="0.00" waitingCount="0" stopTime="0.00" timeLoss="14.74" rerouteNo="1" devices="tripinfo_xiaokeche_taiping_ru.1 routing_xiaokeche_taiping_ru.1" vType="xiaokeche" speedFactor="0.90" vaporized=""/>
    <tripinfo id="xiaokeche_taiping_ru.22" depart="36.00" departLane="TP_ZR1_1" departPos="425.52" departSpeed="0.00" departDelay="0.67" arrival="105.00" arrivalLane="mainlane_16_3" arrivalPos="997.78" arrivalSpeed="28.68" duration="69.00" routeLength="1413.40" waitingTime="0.00" waitingCount="0" stopTime="0.00" timeLoss="9.75" rerouteNo="1" devices="tripinfo_xiaokeche_taiping_ru.22 routing_xiaokeche_taiping_ru.22" vType="xiaokeche" speedFactor="0.90" vaporized=""/>
    <tripinfo id="dakeche_taiping_ru.0" depart="0.00" departLane="TP_ZR1_0" departPos="26.56" departSpeed="0.00" departDelay="0.00" arrival="107.00" arrivalLane="mainlane_16_0" arrivalPos="997.78" arrivalSpeed="27.31" duration="107.00" routeLength="1812.36" waitingTime="0.00" waitingCount="0" stopTime="0.00" timeLoss="19.05" rerouteNo="1" devices="tripinfo_dakeche_taiping_ru.0 routing_dakeche_taiping_ru.0" vType="dakeche" speedFactor="1.00" vaporized=""/>
    <tripinfo id="xiaokeche_taiping_ru.14" depart="27.00" departLane="TP_ZR1_1" departPos="261.96" departSpeed="0.00" departDelay="4.52" arrival="107.00" arrivalLane="mainlane_16_3" arrivalPos="997.78" arrivalSpeed="32.36" duration="80.00" routeLength="1576.96" waitingTime="0.00" waitingCount="0" stopTime="0.00" timeLoss="19.78" rerouteNo="1" devices="tripinfo_xiaokeche_taiping_ru.14 routing_xiaokeche_taiping_ru.14" vType="xiaokeche" speedFactor="1.18" vaporized=""/>
    <tripinfo id="xiaokeche_taiping_ru.15" depart="27.00" departLane="TP_ZR1_1" departPos="247.34" departSpeed="0.00" departDelay="2.91" arrival="108.00" arrivalLane="mainlane_16_3" arrivalPos="997.78" arrivalSpeed="31.97" duration="81.00" routeLength="1591.58" waitingTime="0.00" waitingCount="0" stopTime="0.00" timeLoss="15.79" rerouteNo="1" devices="tripinfo_xiaokeche_taiping_ru.15 routing_xiaokeche_taiping_ru.15" vType="xiaokeche" speedFactor="1.03" vaporized=""/>
    <tripinfo id="xiaokeche_taiping_ru.46" depart="80.00" departLane="TP_ZR1_1" departPos="393.35" departSpeed="0.00" departDelay="6.12" arrival="107.00" arrivalLane="mainlane_16_1" arrivalPos="997.78" arrivalSpeed="27.54" duration="27.00" routeLength="1445.57" waitingTime="0.00" waitingCount="0" stopTime="0.00" timeLoss="5.71" rerouteNo="1" devices="tripinfo_xiaokeche_taiping_ru.46 routing_xiaokeche_taiping_ru.46" vType="xiaokeche" speedFactor="1.18" vaporized="teleport"/>
    <tripinfo id="xiaokeche_taiping_ru.18" depart="29.00" departLane="TP_ZR1_1" departPos="199.31" departSpeed="0.00" departDelay="0.09" arrival="109.00" arrivalLane="mainlane_16_3" arrivalPos="997.78" arrivalSpeed="31.26" duration="80.00" routeLength="1639.61" waitingTime="0.00" waitingCount="0" stopTime="0.00" timeLoss="16.16" rerouteNo="1" devices="tripinfo_xiaokeche_taiping_ru.18 routing_xiaokeche_taiping_ru.18" vType="xiaokeche" speedFactor="1.16" vaporized=""/>
    <tripinfo id="xiaokeche_taiping_ru.4" depart="7.00" departLane="TP_ZR1_1" departPos="87.28" departSpeed="0.00" departDelay="0.58" arrival="111.00" arrivalLane="mainlane_16_3" arrivalPos="997.78" arrivalSpeed="29.55" duration="104.00" routeLength="1751.64" waitingTime="0.00" waitingCount="0" stopTime="0.00" timeLoss="17.42" rerouteNo="1" devices="tripinfo_xiaokeche_taiping_ru.4 routing_xiaokeche_taiping_ru.4" vType="xiaokeche" speedFactor="0.90" vaporized=""/>
    <tripinfo id="xiaokeche_taiping_ru.20" depart="34.00" departLane="TP_ZR1_1" departPos="196.24" departSpeed="0.00" departDelay="1.88" arrival="112.00" arrivalLane="mainlane_16_3" arrivalPos="997.78" arrivalSpeed="30.93" duration="78.00" routeLength="1642.68" waitingTime="0.00" waitingCount="0" stopTime="0.00" timeLoss="12.69" rerouteNo="1" devices="tripinfo_xiaokeche_taiping_ru.20 routing_xiaokeche_taiping_ru.20" vType="xiaokeche" speedFactor="1.12" vaporized=""/>
    <tripinfo id="xiaokeche_taiping_ru.17" depart="29.00" departLane="TP_ZR1_1" departPos="108.07" departSpeed="0.00" departDelay="1.70" arrival="114.00" arrivalLane="mainlane_16_3" arrivalPos="997.78" arrivalSpeed="32.21" duration="85.00" routeLength="1730.85" waitingTime="0.00" waitingCount="0" stopTime="0.00" timeLoss="8.47" rerouteNo="1" devices="tripinfo_xiaokeche_taiping_ru.17 routing_xiaokeche_taiping_ru.17" vType="xiaokeche" speedFactor="1.00" vaporized=""/>
    <tripinfo id="xiaoxinghuoche_taiping_ru.2" depart="51.00" departLane="TP_ZR1_0" departPos="495.07" departSpeed="0.00" departDelay="2.02" arrival="115.00" arrivalLane="mainlane_16_0" arrivalPos="997.78" arrivalSpeed="27.30" duration="64.00" routeLength="1343.85" waitingTime="0.00" waitingCount="0" stopTime="0.00" timeLoss="9.48" rerouteNo="1" devices="tripinfo_xiaoxinghuoche_taiping_ru.2 routing_xiaoxinghuoche_taiping_ru.2" vType="xiaoxinghuoche" speedFactor="0.98" vaporized=""/>
    <tripinfo id="xiaokeche_taiping_ru.7" depart="12.00" departLane="TP_ZR1_1" departPos="13.71" departSpeed="0.00" departDelay="0.76" arrival="116.00" arrivalLane="mainlane_16_3" arrivalPos="997.78" arrivalSpeed="30.75" duration="104.00" routeLength="1825.21" waitingTime="0.00" waitingCount="0" stopTime="0.00" timeLoss="15.80" rerouteNo="1" devices="tripinfo_xiaokeche_taiping_ru.7 routing_xiaokeche_taiping_ru.7" vType="xiaokeche" speedFactor="0.94" vaporized=""/>
    <tripinfo id="tedaxinghuoche_taiping_ru.1" depart="42.00" departLane="TP_ZR1_0" departPos="405.06" departSpeed="0.00" departDelay="1.55" arrival="117.00" arrivalLane="mainlane_16_0" arrivalPos="997.78" arrivalSpeed="27.35" duration="75.00" routeLength="1433.86" waitingTime="0.00" waitingCount="0" stopTime="0.00" timeLoss="14.41" rerouteNo="1" devices="tripinfo_tedaxinghuoche_taiping_ru.1 routing_tedaxinghuoche_taiping_ru.1" vType="tedaxinghuoche" speedFactor="1.02" vaporized=""/>
    <tripinfo id="xiaokeche_taiping_ru.11" depart="18.00" departLane="TP_ZR1_1" departPos="59.14" departSpeed="0.00" departDelay="0.33" arrival="119.00" arrivalLane="mainlane_16_3" arrivalPos="997.78" arrivalSpeed="29.04" duration="101.00" routeLength="1779.78" waitingTime="0.00" waitingCount="0" stopTime="0.00" timeLoss="13.11" rerouteNo="1" devices="tripinfo_xiaokeche_taiping_ru.11 routing_xiaokeche_taiping_ru.11" vType="xiaokeche" speedFactor="0.91" vaporized=""/>
    <tripinfo id="xiaokeche_taiping_ru.23" depart="38.00" departLane="TP_ZR1_1" departPos="174.22" departSpeed="0.00" departDelay="1.06" arrival="120.00" arrivalLane="mainlane_16_3" arrivalPos="997.78" arrivalSpeed="31.37" duration="82.00" routeLength="1664.70" waitingTime="0.00" waitingCount="0" stopTime="0.00" timeLoss="12.11" rerouteNo="1" devices="tripinfo_xiaokeche_taiping_ru.23 routing_xiaokeche_taiping_ru.23" vType="xiaokeche" speedFactor="1.03" vaporized=""/>
    <tripinfo id="xiaokeche_taiping_ru.21" depart="34.00" departLane="TP_ZR1_1" departPos="124.15" departSpeed="0.00" departDelay="0.27" arrival="122.00" arrivalLane="mainlane_16_3" arrivalPos="997.78" arrivalSpeed="32.56" duration="88.00" routeLength="1714.77" waitingTime="0.00" waitingCount="0" stopTime="0.00" timeLoss="15.03" rerouteNo="1" devices="tripinfo_xiaokeche_taiping_ru.21 routing_xiaokeche_taiping_ru.21" vType="xiaokeche" speedFactor="1.05" vaporized=""/>
    <tripinfo id="xiaokeche_taiping_ru.24" depart="39.00" departLane="TP_ZR1_1" departPos="188.28" departSpeed="0.00" departDelay="0.46" arrival="123.00" arrivalLane="mainlane_16_3" arrivalPos="997.78" arrivalSpeed="29.55" duration="84.00" routeLength="1650.64" waitingTime="0.00" waitingCount="0" stopTime="0.00" timeLoss="7.35" rerouteNo="1" devices="tripinfo_xiaokeche_taiping_ru.24 routing_xiaokeche_taiping_ru.24" vType="xiaokeche" speedFactor="0.92" vaporized=""/>
    <tripinfo id="xiaoxinghuoche_taiping_ru.1" depart="25.00" departLane="TP_ZR1_0" departPos="126.82" departSpeed="0.00" departDelay="0.51" arrival="124.00" arrivalLane="mainlane_16_0" arrivalPos="997.78" arrivalSpeed="27.59" duration="99.00" routeLength="1712.10" waitingTime="0.00" waitingCount="0" stopTime="0.00" timeLoss="13.70" rerouteNo="1" devices="tripinfo_xiaoxinghuoche_taiping_ru.1 routing_xiaoxinghuoche_taiping_ru.1" vType="xiaoxinghuoche" speedFactor="0.91" vaporized=""/>
    <tripinfo id="xiaokeche_taiping_ru.19" depart="31.00" departLane="TP_ZR1_1" departPos="28.15" departSpeed="0.00" departDelay="0.49" arrival="125.00" arrivalLane="mainlane_16_3" arrivalPos="997.78" arrivalSpeed="31.61" duration="94.00" routeLength="1810.77" waitingTime="0.00" waitingCount="0" stopTime="0.00" timeLoss="8.96" rerouteNo="1" devices="tripinfo_xiaokeche_taiping_ru.19 routing_xiaokeche_taiping_ru.19" vType="xiaokeche" speedFactor="0.97" vaporized=""/>
    <tripinfo id="xiaokeche_taiping_ru.32" depart="55.00" departLane="TP_ZR1_1" departPos="299.72" departSpeed="0.00" departDelay="3.61" arrival="126.00" arrivalLane="mainlane_16_3" arrivalPos="997.78" arrivalSpeed="32.46" duration="71.00" routeLength="1539.20" waitingTime="0.00" waitingCount="0" stopTime="0.00" timeLoss="8.13" rerouteNo="1" devices="tripinfo_xiaokeche_taiping_ru.32 routing_xiaokeche_taiping_ru.32" vType="xiaokeche" speedFactor="0.99" vaporized=""/>
    <tripinfo id="xiaokeche_taiping_ru.28" depart="45.00" departLane="TP_ZR1_1" departPos="154.24" departSpeed="0.00" departDelay="0.03" arrival="131.00" arrivalLane="mainlane_16_3" arrivalPos="997.78" arrivalSpeed="33.09" duration="86.00" routeLength="1684.68" waitingTime="0.00" waitingCount="0" stopTime="0.00" timeLoss="13.68" rerouteNo="1" devices="tripinfo_xiaokeche_taiping_ru.28 routing_xiaokeche_taiping_ru.28" vType="xiaokeche" speedFactor="1.00" vaporized=""/>
    <tripinfo id="xiaokeche_taiping_ru.36" depart="61.00" departLane="TP_ZR1_1" departPos="293.54" departSpeed="0.00" departDelay="3.18" arrival="133.00" arrivalLane="mainlane_16_3" arrivalPos="997.78" arrivalSpeed="30.86" duration="72.00" routeLength="1545.38" waitingTime="0.00" waitingCount="0" stopTime="0.00" timeLoss="6.98" rerouteNo="1" devices="tripinfo_xiaokeche_taiping_ru.36 routing_xiaokeche_taiping_ru.36" vType="xiaokeche" speedFactor="0.96" vaporized=""/>
    <tripinfo id="xiaokeche_taiping_ru.31" depart="51.00" departLane="TP_ZR1_1" departPos="163.45" departSpeed="0.00" departDelay="1.21" arrival="134.00" arrivalLane="mainlane_16_3" arrivalPos="997.78" arrivalSpeed="32.30" duration="83.00" routeLength="1675.47" waitingTime="0.00" waitingCount="0" stopTime="0.00" timeLoss="12.60" rerouteNo="1" devices="tripinfo_xiaokeche_taiping_ru.31 routing_xiaokeche_taiping_ru.31" vType="xiaokeche" speedFactor="1.04" vaporized=""/>
    <tripinfo id="daxinghuoche_taiping_ru.3" depart="66.00" departLane="TP_ZR1_0" departPos="431.43" departSpeed="0.00" departDelay="5.66" arrival="135.00" arrivalLane="mainlane_16_0" arrivalPos="997.78" arrivalSpeed="27.38" duration="69.00" routeLength="1407.49" waitingTime="0.00" waitingCount="0" stopTime="0.00" timeLoss="9.38" rerouteNo="1" devices="tripinfo_daxinghuoche_taiping_ru.3 routing_daxinghuoche_taiping_ru.3" vType="daxinghuoche" speedFactor="0.98" vaporized=""/>
    <tripinfo id="xiaokeche_houjienan_chu.0" depart="0.00" departLane="mainlane01_1" departPos="121.74" departSpeed="0.00" departDelay="0.00" arrival="136.00" arrivalLane="HJN_ZC1_0" arrivalPos="42.55" arrivalSpeed="13.70" duration="136.00" routeLength="3534.77" waitingTime="0.00" waitingCount="0" stopTime="0.00" timeLoss="11.15" rerouteNo="1" devices="tripinfo_xiaokeche_houjienan_chu.0 routing_xiaokeche_houjienan_chu.0" vType="xiaokeche" speedFactor="0.89" vaporized=""/>
    <tripinfo id="xiaokeche_taiping_ru.33" depart="55.00" departLane="TP_ZR1_1" departPos="229.22" departSpeed="0.00" departDelay="2.00" arrival="136.00" arrivalLane="mainlane_16_3" arrivalPos="997.78" arrivalSpeed="32.15" duration="81.00" routeLength="1609.70" waitingTime="0.00" waitingCount="0" stopTime="0.00" timeLoss="11.20" rerouteNo="1" devices="tripinfo_xiaokeche_taiping_ru.33 routing_xiaokeche_taiping_ru.33" vType="xiaokeche" speedFactor="0.97" vaporized=""/>
    <tripinfo id="xiaokeche_taiping_ru.30" depart="50.00" departLane="TP_ZR1_1" departPos="148.94" departSpeed="0.00" departDelay="1.82" arrival="137.00" arrivalLane="mainlane_16_3" arrivalPos="997.78" arrivalSpeed="32.51" duration="87.00" routeLength="1689.98" waitingTime="0.00" waitingCount="0" stopTime="0.00" timeLoss="19.04" rerouteNo="1" devices="tripinfo_xiaokeche_taiping_ru.30 routing_xiaokeche_taiping_ru.30" vType="xiaokeche" speedFactor="1.14" vaporized=""/>
    <tripinfo id="xiaokeche_taiping_ru.25" depart="41.00" departLane="TP_ZR1_0" departPos="4.50" departSpeed="0.00" departDelay="0.85" arrival="138.00" arrivalLane="mainlane_16_3" arrivalPos="997.78" arrivalSpeed="32.10" duration="97.00" routeLength="1834.42" waitingTime="0.00" waitingCount="0" stopTime="0.00" timeLoss="13.73" rerouteNo="1" devices="tripinfo_xiaokeche_taiping_ru.25 routing_xiaokeche_taiping_ru.25" vType="xiaokeche" speedFactor="1.00" vaporized=""/>
    <tripinfo id="xiaokeche_houjienan_chu.1" depart="3.00" departLane="mainlane01_1" departPos="49.82" departSpeed="0.00" departDelay="0.58" arrival="139.00" arrivalLane="HJN_ZC1_1" arrivalPos="42.55" arrivalSpeed="16.99" duration="136.00" routeLength="3606.69" waitingTime="0.00" waitingCount="0" stopTime="0.00" timeLoss="24.72" rerouteNo="1" devices="tripinfo_xiaokeche_houjienan_chu.1 routing_xiaokeche_houjienan_chu.1" vType="xiaokeche" speedFactor="1.09" vaporized=""/>
    <tripinfo id="xiaokeche_taiping_ru.37" depart="61.00" departLane="TP_ZR1_1" departPos="228.86" departSpeed="0.00" departDelay="1.58" arrival="140.00" arrivalLane="mainlane_16_3" arrivalPos="997.78" arrivalSpeed="31.70" duration="79.00" routeLength="1610.06" waitingTime="0.00" waitingCount="0" stopTime="0.00" timeLoss="9.69" rerouteNo="1" devices="tripinfo_xiaokeche_taiping_ru.37 routing_xiaokeche_taiping_ru.37" vType="xiaokeche" speedFactor="0.98" vaporized=""/>
    <tripinfo id="xiaokeche_taiping_ru.27" depart="44.00" departLane="TP_ZR1_1" departPos="34.64" departSpeed="0.00" departDelay="0.64" arrival="141.00" arrivalLane="mainlane_16_3" arrivalPos="997.78" arrivalSpeed="31.19" duration="97.00" routeLength="1804.28" waitingTime="0.00" waitingCount="0" stopTime="0.00" timeLoss="12.33" rerouteNo="1" devices="tripinfo_xiaokeche_taiping_ru.27 routing_xiaokeche_taiping_ru.27" vType="xiaokeche" speedFactor="0.96" vaporized=""/>
    <tripinfo id="xiaokeche_xinlian_ru.0" depart="0.00" departLane="XL_ZR2_1" departPos="122.81" departSpeed="0.00" departDelay="0.00" arrival="142.00" arrivalLane="mainlane_16_2" arrivalPos="997.78" arrivalSpeed="31.14" duration="142.00" routeLength="3863.54" waitingTime="0.00" waitingCount="0" stopTime="0.00" timeLoss="10.59" rerouteNo="1" devices="tripinfo_xiaokeche_xinlian_ru.0 routing_xiaokeche_xinlian_ru.0" vType="xiaokeche" speedFactor="0.94" vaporized=""/>
    <tripinfo id="xiaokeche_houjienan_chu.3" depart="9.00" departLane="mainlane01_1" departPos="70.07" departSpeed="0.00" departDelay="1.75" arrival="142.00" arrivalLane="HJN_ZC1_1" arrivalPos="42.55" arrivalSpeed="15.94" duration="133.00" routeLength="3586.44" waitingTime="0.00" waitingCount="0" stopTime="0.00" timeLoss="21.38" rerouteNo="1" devices="tripinfo_xiaokeche_houjienan_chu.3 routing_xiaokeche_houjienan_chu.3" vType="xiaokeche" speedFactor="1.02" vaporized=""/>
    <tripinfo id="xiaokeche_houjienan_chu.2" depart="6.00" departLane="mainlane01_1" departPos="109.97" departSpeed="0.00" departDelay="1.16" arrival="143.00" arrivalLane="HJN_ZC1_0" arrivalPos="42.55" arrivalSpeed="14.44" duration="137.00" routeLength="3546.54" waitingTime="0.00" waitingCount="0" stopTime="0.00" timeLoss="10.59" rerouteNo="1" devices="tripinfo_xiaokeche_houjienan_chu.2 routing_xiaokeche_houjienan_chu.2" vType="xiaokeche" speedFactor="0.88" vaporized=""/>
    <tripinfo id="xiaokeche_taiping_ru.29" depart="47.00" departLane="TP_ZR1_1" departPos="8.23" departSpeed="0.00" departDelay="0.43" arrival="143.00" arrivalLane="mainlane_16_3" arrivalPos="997.78" arrivalSpeed="32.55" duration="96.00" routeLength="1830.69" waitingTime="0.00" waitingCount="0" stopTime="0.00" timeLoss="12.19" rerouteNo="1" devices="tripinfo_xiaokeche_taiping_ru.29 routing_xiaokeche_taiping_ru.29" vType="xiaokeche" speedFactor="1.00" vaporized=""/>
    <tripinfo id="xiaokeche_taiping_ru.35" depart="61.00" departLane="TP_ZR1_1" departPos="91.72" departSpeed="0.00" departDelay="4.79" arrival="144.00" arrivalLane="mainlane_16_3" arrivalPos="997.78" arrivalSpeed="33.18" duration="83.00" routeLength="1747.20" waitingTime="0.00" waitingCount="0" stopTime="0.00" timeLoss="11.39" rerouteNo="1" devices="tripinfo_xiaokeche_taiping_ru.35 routing_xiaokeche_taiping_ru.35" vType="xiaokeche" speedFactor="1.13" vaporized=""/>
    <tripinfo id="dakeche_taiping_ru.1" depart="50.00" departLane="TP_ZR1_0" departPos="68.81" departSpeed="0.00" departDelay="1.35" arrival="146.00" arrivalLane="mainlane_16_0" arrivalPos="997.78" arrivalSpeed="27.42" duration="96.00" routeLength="1770.11" waitingTime="0.00" waitingCount="0" stopTime="0.00" timeLoss="11.15" rerouteNo="1" devices="tripinfo_dakeche_taiping_ru.1 routing_dakeche_taiping_ru.1" vType="dakeche" speedFactor="1.00" vaporized=""/>
    <tripinfo id="xiaokeche_taiping_ru.34" depart="57.00" departLane="TP_ZR1_1" departPos="79.18" departSpeed="0.00" departDelay="2.40" arrival="146.00" arrivalLane="mainlane_16_3" arrivalPos="997.78" arrivalSpeed="31.20" duration="89.00" routeLength="1759.74" waitingTime="0.00" waitingCount="0" stopTime="0.00" timeLoss="8.22" rerouteNo="1" devices="tripinfo_xiaokeche_taiping_ru.34 routing_xiaokeche_taiping_ru.34" vType="xiaokeche" speedFactor="0.96" vaporized=""/>
    <tripinfo id="xiaokeche_taiping_ru.38" depart="63.00" departLane="TP_ZR1_1" departPos="81.34" departSpeed="0.00" departDelay="1.97" arrival="148.00" arrivalLane="mainlane_16_3" arrivalPos="997.78" arrivalSpeed="33.10" duration="85.00" routeLength="1757.58" waitingTime="0.00" waitingCount="0" stopTime="0.00" timeLoss="10.14" rerouteNo="1" devices="tripinfo_xiaokeche_taiping_ru.38 routing_xiaokeche_taiping_ru.38" vType="xiaokeche" speedFactor="1.08" vaporized=""/>
    <tripinfo id="xiaokeche_taiping_ru.43" depart="77.00" departLane="TP_ZR1_1" departPos="208.52" departSpeed="0.00" departDelay="7.94" arrival="149.00" arrivalLane="mainlane_16_3" arrivalPos="997.78" arrivalSpeed="32.37" duration="72.00" routeLength="1630.40" waitingTime="0.00" waitingCount="0" stopTime="0.00" timeLoss="8.51" rerouteNo="1" devices="tripinfo_xiaokeche_taiping_ru.43 routing_xiaokeche_taiping_ru.43" vType="xiaokeche" speedFactor="1.15" vaporized=""/>
    <tripinfo id="xiaoxinghuoche_houjienan_chu.0" depart="1.00" departLane="mainlane01_0" departPos="121.52" departSpeed="0.00" departDelay="1.00" arrival="151.00" arrivalLane="HJN_ZC1_0" arrivalPos="42.55" arrivalSpeed="16.09" duration="150.00" routeLength="3534.99" waitingTime="0.00" waitingCount="0" stopTime="0.00" timeLoss="19.53" rerouteNo="1" devices="tripinfo_xiaoxinghuoche_houjienan_chu.0 routing_xiaoxinghuoche_houjienan_chu.0" vType="xiaoxinghuoche" speedFactor="0.97" vaporized=""/>
    <tripinfo id="zhongxinghuoche_xinlian_ru.0" depart="0.00" departLane="XL_ZR2_0" departPos="189.90" departSpeed="0.00" departDelay="0.00" arrival="154.00" arrivalLane="mainlane_16_0" arrivalPos="997.78" arrivalSpeed="27.48" duration="154.00" routeLength="3796.45" waitingTime="0.00" waitingCount="0" stopTime="0.00" timeLoss="15.51" rerouteNo="1" devices="tripinfo_zhongxinghuoche_xinlian_ru.0 routing_zhongxinghuoche_xinlian_ru.0" vType="zhongxinghuoche" speedFactor="1.08" vaporized=""/>