<?xml version="1.0" encoding="UTF-8"?>

<!-- generated on 2021-11-06 21:59:33 by Eclipse SUMO GUI Version 1.10.0
<configuration xmlns:xsi="http://www.w3.org/2001/XMLSchema-instance" xsi:noNamespaceSchemaLocation="http://sumo.dlr.de/xsd/sumoConfiguration.xsd">

    <input>
        <net-file value="F:\sumo_pro/traci_main\guangshen\guangshen\guangshen_ALL.net.xml"/>
        <route-files value="F:\sumo_pro/traci_main\guangshen\guangshen\guangshen_ALL.rou.xml"/>
    </input>

    <output>
        <tripinfo-output value="F:\sumo_pro\traci_main\guangshen\guangshen/tripinfo2_TEST.xml"/>
    </output>

    <time>
        <begin value="0"/>
        <end value="20000"/>
    </time>

    <report>
        <verbose value="true"/>
        <duration-log.statistics value="true"/>
    </report>

    <traci_server>
        <remote-port value="59025"/>
    </traci_server>

    <gui_only>
        <gui-settings-file value="F:\sumo_pro/traci_main\guangshen\guangshen\gui-settings2.cfg"/>
        <quit-on-end value="false"/>
        <start value="true"/>
    </gui_only>

</configuration>
-->

<tripinfos xmlns:xsi="http://www.w3.org/2001/XMLSchema-instance" xsi:noNamespaceSchemaLocation="http://sumo.dlr.de/xsd/tripinfo_file.xsd">
    <tripinfo id="xiaokeche_taiping_ru.2" depart="4.00" departLane="TP_ZR1_1" departPos="554.47" departSpeed="0.00" departDelay="0.79" arrival="53.00" arrivalLane="mainlane_16_0" arrivalPos="997.88" arrivalSpeed="32.54" duration="49.00" routeLength="1284.61" waitingTime="0.00" waitingCount="0" stopTime="0.00" timeLoss="5.77" rerouteNo="1" devices="tripinfo_xiaokeche_taiping_ru.2 routing_xiaokeche_taiping_ru.2" vType="xiaokeche" speedFactor="0.99" vaporized=""/>
    <tripinfo id="xiaokeche_taiping_ru.4" depart="7.00" departLane="TP_ZR1_1" departPos="551.82" departSpeed="0.00" departDelay="0.58" arrival="56.00" arrivalLane="mainlane_16_0" arrivalPos="997.88" arrivalSpeed="32.94" duration="49.00" routeLength="1287.26" waitingTime="0.00" waitingCount="0" stopTime="0.00" timeLoss="6.37" rerouteNo="1" devices="tripinfo_xiaokeche_taiping_ru.4 routing_xiaokeche_taiping_ru.4" vType="xiaokeche" speedFactor="1.04" vaporized=""/>
    <tripinfo id="dakeche_taiping_ru.0" depart="0.00" departLane="TP_ZR1_0" departPos="392.97" departSpeed="0.00" departDelay="0.00" arrival="71.00" arrivalLane="mainlane_16_0" arrivalPos="997.88" arrivalSpeed="27.51" duration="71.00" routeLength="1446.11" waitingTime="0.00" waitingCount="0" stopTime="0.00" timeLoss="10.43" rerouteNo="1" devices="tripinfo_dakeche_taiping_ru.0 routing_dakeche_taiping_ru.0" vType="dakeche" speedFactor="1.00" vaporized=""/>
    <tripinfo id="xiaokeche_taiping_ru.10" depart="18.00" departLane="TP_ZR1_1" departPos="502.32" departSpeed="0.00" departDelay="1.94" arrival="73.00" arrivalLane="mainlane_16_0" arrivalPos="997.88" arrivalSpeed="31.83" duration="55.00" routeLength="1336.76" waitingTime="0.00" waitingCount="0" stopTime="0.00" timeLoss="8.63" rerouteNo="1" devices="tripinfo_xiaokeche_taiping_ru.10 routing_xiaokeche_taiping_ru.10" vType="xiaokeche" speedFactor="1.03" vaporized=""/>
    <tripinfo id="tedaxinghuoche_taiping_ru.0" depart="0.00" departLane="TP_ZR1_0" departPos="364.15" departSpeed="0.00" departDelay="0.00" arrival="76.00" arrivalLane="mainlane_16_0" arrivalPos="997.88" arrivalSpeed="27.67" duration="76.00" routeLength="1474.93" waitingTime="0.00" waitingCount="0" stopTime="0.00" timeLoss="10.47" rerouteNo="1" devices="tripinfo_tedaxinghuoche_taiping_ru.0 routing_tedaxinghuoche_taiping_ru.0" vType="tedaxinghuoche" speedFactor="0.91" vaporized=""/>
    <tripinfo id="zhongxinghuoche_taiping_ru.0" depart="0.00" departLane="TP_ZR1_0" departPos="294.88" departSpeed="0.00" departDelay="0.00" arrival="78.00" arrivalLane="mainlane_16_0" arrivalPos="997.88" arrivalSpeed="27.75" duration="78.00" routeLength="1544.20" waitingTime="0.00" waitingCount="0" stopTime="0.00" timeLoss="10.15" rerouteNo="1" devices="tripinfo_zhongxinghuoche_taiping_ru.0 routing_zhongxinghuoche_taiping_ru.0" vType="zhongxinghuoche" speedFactor="0.99" vaporized=""/>
    <tripinfo id="xiaokeche_taiping_ru.0" depart="0.00" departLane="TP_ZR1_0" departPos="185.08" departSpeed="0.00" departDelay="0.00" arrival="80.00" arrivalLane="mainlane_16_0" arrivalPos="997.88" arrivalSpeed="30.97" duration="80.00" routeLength="1654.00" waitingTime="0.00" waitingCount="0" stopTime="0.00" timeLoss="11.02" rerouteNo="1" devices="tripinfo_xiaokeche_taiping_ru.0 routing_xiaokeche_taiping_ru.0" vType="xiaokeche" speedFactor="1.02" vaporized=""/>
    <tripinfo id="xiaokeche_taiping_ru.1" depart="2.00" departLane="TP_ZR1_1" departPos="136.08" departSpeed="0.00" departDelay="0.39" arrival="80.00" arrivalLane="mainlane_16_1" arrivalPos="997.88" arrivalSpeed="32.25" duration="78.00" routeLength="1703.00" waitingTime="0.00" waitingCount="0" stopTime="0.00" timeLoss="9.76" rerouteNo="1" devices="tripinfo_xiaokeche_taiping_ru.1 routing_xiaokeche_taiping_ru.1" vType="xiaokeche" speedFactor="1.13" vaporized=""/>
    <tripinfo id="xiaokeche_taiping_ru.17" depart="30.00" departLane="TP_ZR1_1" departPos="538.16" departSpeed="0.00" departDelay="2.70" arrival="81.00" arrivalLane="mainlane_16_0" arrivalPos="997.88" arrivalSpeed="30.57" duration="51.00" routeLength="1300.92" waitingTime="0.00" waitingCount="0" stopTime="0.00" timeLoss="9.00" rerouteNo="1" devices="tripinfo_xiaokeche_taiping_ru.17 routing_xiaokeche_taiping_ru.17" vType="xiaokeche" speedFactor="1.18" vaporized=""/>
    <tripinfo id="xiaokeche_taiping_ru.8" depart="15.00" departLane="TP_ZR1_1" departPos="336.30" departSpeed="0.00" departDelay="2.15" arrival="82.00" arrivalLane="mainlane_16_0" arrivalPos="997.88" arrivalSpeed="31.76" duration="67.00" routeLength="1502.78" waitingTime="0.00" waitingCount="0" stopTime="0.00" timeLoss="8.02" rerouteNo="1" devices="tripinfo_xiaokeche_taiping_ru.8 routing_xiaokeche_taiping_ru.8" vType="xiaokeche" speedFactor="0.99" vaporized=""/>
    <tripinfo id="xiaokeche_taiping_ru.3" depart="5.00" departLane="TP_ZR1_1" departPos="138.76" departSpeed="0.00" departDelay="0.18" arrival="84.00" arrivalLane="mainlane_16_0" arrivalPos="997.88" arrivalSpeed="32.24" duration="79.00" routeLength="1700.32" waitingTime="0.00" waitingCount="0" stopTime="0.00" timeLoss="9.89" rerouteNo="1" devices="tripinfo_xiaokeche_taiping_ru.3 routing_xiaokeche_taiping_ru.3" vType="xiaokeche" speedFactor="1.10" vaporized=""/>
    <tripinfo id="xiaokeche_taiping_ru.11" depart="19.00" departLane="TP_ZR1_1" departPos="268.07" departSpeed="0.00" departDelay="1.33" arrival="88.00" arrivalLane="mainlane_16_0" arrivalPos="997.88" arrivalSpeed="32.41" duration="69.00" routeLength="1571.01" waitingTime="0.00" waitingCount="0" stopTime="0.00" timeLoss="7.88" rerouteNo="1" devices="tripinfo_xiaokeche_taiping_ru.11 routing_xiaokeche_taiping_ru.11" vType="xiaokeche" speedFactor="1.09" vaporized=""/>
    <tripinfo id="daxinghuoche_taiping_ru.0" depart="0.00" departLane="TP_ZR1_0" departPos="176.52" departSpeed="0.00" departDelay="0.00" arrival="89.00" arrivalLane="mainlane_16_0" arrivalPos="997.88" arrivalSpeed="27.78" duration="89.00" routeLength="1662.56" waitingTime="0.00" waitingCount="0" stopTime="0.00" timeLoss="10.07" rerouteNo="1" devices="tripinfo_daxinghuoche_taiping_ru.0 routing_daxinghuoche_taiping_ru.0" vType="daxinghuoche" speedFactor="0.94" vaporized=""/>
    <tripinfo id="xiaokeche_taiping_ru.18" depart="30.00" departLane="TP_ZR1_1" departPos="450.70" departSpeed="0.00" departDelay="1.09" arrival="90.00" arrivalLane="mainlane_16_0" arrivalPos="997.88" arrivalSpeed="29.73" duration="60.00" routeLength="1388.38" waitingTime="0.00" waitingCount="0" stopTime="0.00" timeLoss="9.72" rerouteNo="1" devices="tripinfo_xiaokeche_taiping_ru.18 routing_xiaokeche_taiping_ru.18" vType="xiaokeche" speedFactor="0.99" vaporized=""/>
    <tripinfo id="xiaokeche_taiping_ru.16" depart="27.00" departLane="TP_ZR1_1" departPos="378.61" departSpeed="0.00" departDelay="1.30" arrival="92.00" arrivalLane="mainlane_16_0" arrivalPos="997.88" arrivalSpeed="31.21" duration="65.00" routeLength="1460.47" waitingTime="0.00" waitingCount="0" stopTime="0.00" timeLoss="7.13" rerouteNo="1" devices="tripinfo_xiaokeche_taiping_ru.16 routing_xiaokeche_taiping_ru.16" vType="xiaokeche" speedFactor="0.96" vaporized=""/>
    <tripinfo id="xiaokeche_taiping_ru.6" depart="10.00" departLane="TP_ZR1_1" departPos="102.89" departSpeed="0.00" departDelay="0.36" arrival="93.00" arrivalLane="mainlane_16_0" arrivalPos="997.88" arrivalSpeed="32.52" duration="83.00" routeLength="1736.19" waitingTime="0.00" waitingCount="0" stopTime="0.00" timeLoss="7.83" rerouteNo="1" devices="tripinfo_xiaokeche_taiping_ru.6 routing_xiaokeche_taiping_ru.6" vType="xiaokeche" speedFactor="1.00" vaporized=""/>
    <tripinfo id="daxinghuoche_taiping_ru.1" depart="23.00" departLane="TP_ZR1_0" departPos="338.64" departSpeed="0.00" departDelay="2.89" arrival="96.00" arrivalLane="mainlane_16_0" arrivalPos="997.88" arrivalSpeed="27.37" duration="73.00" routeLength="1500.44" waitingTime="0.00" waitingCount="0" stopTime="0.00" timeLoss="9.24" rerouteNo="1" devices="tripinfo_daxinghuoche_taiping_ru.1 routing_daxinghuoche_taiping_ru.1" vType="daxinghuoche" speedFactor="1.01" vaporized=""/>
    <tripinfo id="xiaokeche_taiping_ru.14" depart="23.00" departLane="TP_ZR1_1" departPos="218.13" departSpeed="0.00" departDelay="0.52" arrival="96.00" arrivalLane="mainlane_16_1" arrivalPos="997.88" arrivalSpeed="32.13" duration="73.00" routeLength="1620.95" waitingTime="0.00" waitingCount="0" stopTime="0.00" timeLoss="6.53" rerouteNo="1" devices="tripinfo_xiaokeche_taiping_ru.14 routing_xiaokeche_taiping_ru.14" vType="xiaokeche" speedFactor="1.01" vaporized=""/>
    <tripinfo id="xiaokeche_taiping_ru.9" depart="15.00" departLane="TP_ZR1_1" departPos="209.92" departSpeed="0.00" departDelay="0.55" arrival="98.00" arrivalLane="mainlane_16_0" arrivalPos="997.88" arrivalSpeed="30.23" duration="83.00" routeLength="1629.16" waitingTime="0.00" waitingCount="0" stopTime="0.00" timeLoss="16.42" rerouteNo="1" devices="tripinfo_xiaokeche_taiping_ru.9 routing_xiaokeche_taiping_ru.9" vType="xiaokeche" speedFactor="1.02" vaporized=""/>
    <tripinfo id="xiaoxinghuoche_taiping_ru.0" depart="0.00" departLane="TP_ZR1_0" departPos="26.56" departSpeed="0.00" departDelay="0.00" arrival="101.00" arrivalLane="mainlane_16_0" arrivalPos="997.88" arrivalSpeed="27.35" duration="101.00" routeLength="1812.52" waitingTime="0.00" waitingCount="0" stopTime="0.00" timeLoss="14.08" rerouteNo="1" devices="tripinfo_xiaoxinghuoche_taiping_ru.0 routing_xiaoxinghuoche_taiping_ru.0" vType="xiaoxinghuoche" speedFactor="1.01" vaporized=""/>
    <tripinfo id="xiaokeche_taiping_ru.7" depart="12.00" departLane="TP_ZR1_1" departPos="45.99" departSpeed="0.00" departDelay="0.76" arrival="102.00" arrivalLane="mainlane_16_0" arrivalPos="997.88" arrivalSpeed="29.69" duration="90.00" routeLength="1793.09" waitingTime="0.00" waitingCount="0" stopTime="0.00" timeLoss="11.89" rerouteNo="1" devices="tripinfo_xiaokeche_taiping_ru.7 routing_xiaokeche_taiping_ru.7" vType="xiaokeche" speedFactor="1.02" vaporized=""/>
    <tripinfo id="xiaokeche_taiping_ru.5" depart="9.00" departLane="TP_ZR1_1" departPos="87.28" departSpeed="0.00" departDelay="0.97" arrival="108.00" arrivalLane="mainlane_16_0" arrivalPos="997.88" arrivalSpeed="27.17" duration="99.00" routeLength="1751.80" waitingTime="0.00" waitingCount="0" stopTime="0.00" timeLoss="8.83" rerouteNo="1" devices="tripinfo_xiaokeche_taiping_ru.5 routing_xiaokeche_taiping_ru.5" vType="xiaokeche" speedFactor="0.85" vaporized=""/>
    <tripinfo id="xiaokeche_taiping_ru.24" depart="39.00" departLane="TP_ZR1_0" departPos="347.52" departSpeed="0.00" departDelay="0.46" arrival="109.00" arrivalLane="mainlane_16_0" arrivalPos="997.88" arrivalSpeed="30.93" duration="70.00" routeLength="1491.56" waitingTime="0.00" waitingCount="0" stopTime="0.00" timeLoss="15.57" rerouteNo="1" devices="tripinfo_xiaokeche_taiping_ru.24 routing_xiaokeche_taiping_ru.24" vType="xiaokeche" speedFactor="1.12" vaporized=""/>
    <tripinfo id="xiaokeche_taiping_ru.27" depart="47.00" departLane="TP_ZR1_1" departPos="457.86" departSpeed="0.00" departDelay="3.64" arrival="110.00" arrivalLane="mainlane_16_1" arrivalPos="997.88" arrivalSpeed="32.27" duration="63.00" routeLength="1381.22" waitingTime="0.00" waitingCount="0" stopTime="0.00" timeLoss="14.12" rerouteNo="1" devices="tripinfo_xiaokeche_taiping_ru.27 routing_xiaokeche_taiping_ru.27" vType="xiaokeche" speedFactor="1.03" vaporized=""/>
    <tripinfo id="xiaokeche_taiping_ru.12" depart="20.00" departLane="TP_ZR1_1" departPos="71.45" departSpeed="0.00" departDelay="0.73" arrival="111.00" arrivalLane="mainlane_16_0" arrivalPos="997.88" arrivalSpeed="32.90" duration="91.00" routeLength="1767.63" waitingTime="0.00" waitingCount="0" stopTime="0.00" timeLoss="15.03" rerouteNo="1" devices="tripinfo_xiaokeche_taiping_ru.12 routing_xiaokeche_taiping_ru.12" vType="xiaokeche" speedFactor="1.04" vaporized=""/>
    <tripinfo id="xiaokeche_taiping_ru.15" depart="26.00" departLane="TP_ZR1_1" departPos="96.29" departSpeed="0.00" departDelay="1.91" arrival="112.00" arrivalLane="mainlane_16_0" arrivalPos="997.88" arrivalSpeed="33.07" duration="86.00" routeLength="1742.79" waitingTime="0.00" waitingCount="0" stopTime="0.00" timeLoss="12.99" rerouteNo="1" devices="tripinfo_xiaokeche_taiping_ru.15 routing_xiaokeche_taiping_ru.15" vType="xiaokeche" speedFactor="1.07" vaporized=""/>
    <tripinfo id="xiaokeche_taiping_ru.19" depart="31.00" departLane="TP_ZR1_1" departPos="88.15" departSpeed="0.00" departDelay="0.49" arrival="113.00" arrivalLane="mainlane_16_1" arrivalPos="997.88" arrivalSpeed="33.30" duration="82.00" routeLength="1750.93" waitingTime="0.00" waitingCount="0" stopTime="0.00" timeLoss="11.67" rerouteNo="1" devices="tripinfo_xiaokeche_taiping_ru.19 routing_xiaokeche_taiping_ru.19" vType="xiaokeche" speedFactor="1.15" vaporized=""/>
    <tripinfo id="xiaokeche_taiping_ru.31" depart="52.00" departLane="TP_ZR1_1" departPos="515.22" departSpeed="0.00" departDelay="2.21" arrival="113.00" arrivalLane="mainlane_16_0" arrivalPos="997.88" arrivalSpeed="27.38" duration="61.00" routeLength="1323.86" waitingTime="0.00" waitingCount="0" stopTime="0.00" timeLoss="5.20" rerouteNo="1" devices="tripinfo_xiaokeche_taiping_ru.31 routing_xiaokeche_taiping_ru.31" vType="xiaokeche" speedFactor="0.83" vaporized=""/>
    <tripinfo id="xiaokeche_taiping_ru.20" depart="33.00" departLane="TP_ZR1_1" departPos="255.58" departSpeed="0.00" departDelay="0.88" arrival="114.00" arrivalLane="mainlane_16_0" arrivalPos="997.88" arrivalSpeed="27.60" duration="81.00" routeLength="1583.50" waitingTime="0.00" waitingCount="0" stopTime="0.00" timeLoss="18.83" rerouteNo="1" devices="tripinfo_xiaokeche_taiping_ru.20 routing_xiaokeche_taiping_ru.20" vType="xiaokeche" speedFactor="1.07" vaporized=""/>
    <tripinfo id="xiaokeche_taiping_ru.21" depart="37.00" departLane="TP_ZR1_1" departPos="327.42" departSpeed="0.00" departDelay="3.27" arrival="115.00" arrivalLane="mainlane_16_0" arrivalPos="997.88" arrivalSpeed="27.55" duration="78.00" routeLength="1511.66" waitingTime="0.00" waitingCount="0" stopTime="0.00" timeLoss="16.18" rerouteNo="1" devices="tripinfo_xiaokeche_taiping_ru.21 routing_xiaokeche_taiping_ru.21" vType="xiaokeche" speedFactor="0.95" vaporized=""/>
    <tripinfo id="xiaokeche_taiping_ru.40" depart="67.00" departLane="TP_ZR1_1" departPos="558.31" departSpeed="0.00" departDelay="2.76" arrival="115.00" arrivalLane="mainlane_16_1" arrivalPos="997.88" arrivalSpeed="32.76" duration="48.00" routeLength="1280.77" waitingTime="0.00" waitingCount="0" stopTime="0.00" timeLoss="6.33" rerouteNo="1" devices="tripinfo_xiaokeche_taiping_ru.40 routing_xiaokeche_taiping_ru.40" vType="xiaokeche" speedFactor="1.04" vaporized=""/>
    <tripinfo id="xiaokeche_taiping_ru.13" depart="21.00" departLane="TP_ZR1_1" departPos="24.49" departSpeed="0.00" departDelay="0.12" arrival="117.00" arrivalLane="mainlane_16_0" arrivalPos="997.88" arrivalSpeed="30.05" duration="96.00" routeLength="1814.59" waitingTime="0.00" waitingCount="0" stopTime="0.00" timeLoss="15.87" rerouteNo="1" devices="tripinfo_xiaokeche_taiping_ru.13 routing_xiaokeche_taiping_ru.13" vType="xiaokeche" speedFactor="1.02" vaporized=""/>
    <tripinfo id="xiaokeche_taiping_ru.28" depart="47.00" departLane="TP_ZR1_1" departPos="275.35" departSpeed="0.00" departDelay="2.03" arrival="118.00" arrivalLane="mainlane_16_0" arrivalPos="997.88" arrivalSpeed="31.07" duration="71.00" routeLength="1563.73" waitingTime="0.00" waitingCount="0" stopTime="0.00" timeLoss="10.29" rerouteNo="1" devices="tripinfo_xiaokeche_taiping_ru.28 routing_xiaokeche_taiping_ru.28" vType="xiaokeche" speedFactor="1.06" vaporized=""/>
    <tripinfo id="xiaokeche_taiping_ru.26" depart="44.00" departLane="TP_ZR1_1" departPos="210.13" departSpeed="0.00" departDelay="2.24" arrival="120.00" arrivalLane="mainlane_16_0" arrivalPos="997.88" arrivalSpeed="32.10" duration="76.00" routeLength="1628.95" waitingTime="0.00" waitingCount="0" stopTime="0.00" timeLoss="10.71" rerouteNo="1" devices="tripinfo_xiaokeche_taiping_ru.26 routing_xiaokeche_taiping_ru.26" vType="xiaokeche" speedFactor="1.09" vaporized=""/>
    <tripinfo id="xiaokeche_taiping_ru.41" depart="67.00" departLane="TP_ZR1_1" departPos="546.47" departSpeed="0.00" departDelay="1.15" arrival="121.00" arrivalLane="mainlane_16_0" arrivalPos="997.88" arrivalSpeed="32.06" duration="54.00" routeLength="1292.61" waitingTime="0.00" waitingCount="0" stopTime="0.00" timeLoss="9.77" rerouteNo="1" devices="tripinfo_xiaokeche_taiping_ru.41 routing_xiaokeche_taiping_ru.41" vType="xiaokeche" speedFactor="0.99" vaporized=""/>
    <tripinfo id="xiaokeche_taiping_ru.45" depart="73.00" departLane="TP_ZR1_1" departPos="536.56" departSpeed="0.00" departDelay="0.73" arrival="123.00" arrivalLane="mainlane_16_0" arrivalPos="997.88" arrivalSpeed="33.05" duration="50.00" routeLength="1302.52" waitingTime="0.00" waitingCount="0" stopTime="0.00" timeLoss="6.32" rerouteNo="1" devices="tripinfo_xiaokeche_taiping_ru.45 routing_xiaokeche_taiping_ru.45" vType="xiaokeche" speedFactor="1.08" vaporized=""/>
    <tripinfo id="dakeche_taiping_ru.1" depart="51.00" departLane="TP_ZR1_0" departPos="331.38" departSpeed="0.00" departDelay="2.35" arrival="126.00" arrivalLane="mainlane_16_0" arrivalPos="997.88" arrivalSpeed="27.59" duration="75.00" routeLength="1507.70" waitingTime="0.00" waitingCount="0" stopTime="0.00" timeLoss="9.94" rerouteNo="1" devices="tripinfo_dakeche_taiping_ru.1 routing_dakeche_taiping_ru.1" vType="dakeche" speedFactor="1.00" vaporized=""/>
    <tripinfo id="xiaokeche_taiping_ru.42" depart="68.00" departLane="TP_ZR1_1" departPos="453.05" departSpeed="0.00" departDelay="0.55" arrival="126.00" arrivalLane="mainlane_16_1" arrivalPos="997.88" arrivalSpeed="30.94" duration="58.00" routeLength="1386.03" waitingTime="0.00" waitingCount="0" stopTime="0.00" timeLoss="6.26" rerouteNo="1" devices="tripinfo_xiaokeche_taiping_ru.42 routing_xiaokeche_taiping_ru.42" vType="xiaokeche" speedFactor="0.96" vaporized=""/>
    <tripinfo id="daxinghuoche_taiping_ru.2" depart="43.00" departLane="TP_ZR1_0" departPos="256.93" departSpeed="0.00" departDelay="2.78" arrival="128.00" arrivalLane="mainlane_16_0" arrivalPos="997.88" arrivalSpeed="27.75" duration="85.00" routeLength="1582.15" waitingTime="0.00" waitingCount="0" stopTime="0.00" timeLoss="15.20" rerouteNo="1" devices="tripinfo_daxinghuoche_taiping_ru.2 routing_daxinghuoche_taiping_ru.2" vType="daxinghuoche" speedFactor="1.03" vaporized=""/>
    <tripinfo id="xiaoxinghuoche_taiping_ru.1" depart="25.00" departLane="TP_ZR1_0" departPos="8.41" departSpeed="0.00" departDelay="0.51" arrival="130.00" arrivalLane="mainlane_16_0" arrivalPos="997.88" arrivalSpeed="27.77" duration="105.00" routeLength="1830.67" waitingTime="0.00" waitingCount="0" stopTime="0.00" timeLoss="16.94" rerouteNo="1" devices="tripinfo_xiaoxinghuoche_taiping_ru.1 routing_xiaoxinghuoche_taiping_ru.1" vType="xiaoxinghuoche" speedFactor="1.01" vaporized=""/>
    <tripinfo id="xiaokeche_taiping_ru.23" depart="37.00" departLane="TP_ZR1_1" departPos="68.65" departSpeed="0.00" departDelay="0.06" arrival="131.00" arrivalLane="mainlane_16_0" arrivalPos="997.88" arrivalSpeed="29.39" duration="94.00" routeLength="1770.43" waitingTime="0.00" waitingCount="0" stopTime="0.00" timeLoss="18.46" rerouteNo="1" devices="tripinfo_xiaokeche_taiping_ru.23 routing_xiaokeche_taiping_ru.23" vType="xiaokeche" speedFactor="1.04" vaporized=""/>
    <tripinfo id="xiaokeche_taiping_ru.25" depart="43.00" departLane="TP_ZR1_1" departPos="151.93" departSpeed="0.00" departDelay="2.85" arrival="132.00" arrivalLane="mainlane_16_0" arrivalPos="997.88" arrivalSpeed="32.68" duration="89.00" routeLength="1687.15" waitingTime="0.00" waitingCount="0" stopTime="0.00" timeLoss="21.92" rerouteNo="1" devices="tripinfo_xiaokeche_taiping_ru.25 routing_xiaokeche_taiping_ru.25" vType="xiaokeche" speedFactor="1.13" vaporized=""/>
    <tripinfo id="xiaokeche_houjienan_chu.1" depart="3.00" departLane="mainlane01_4" departPos="104.39" departSpeed="0.00" departDelay="0.58" arrival="133.00" arrivalLane="HJN_ZC1_1" arrivalPos="42.55" arrivalSpeed="19.29" duration="130.00" routeLength="3481.24" waitingTime="0.00" waitingCount="0" stopTime="0.00" timeLoss="22.93" rerouteNo="1" devices="tripinfo_xiaokeche_houjienan_chu.1 routing_xiaokeche_houjienan_chu.1" vType="xiaokeche" speedFactor="1.18" vaporized=""/>
    <tripinfo id="xiaokeche_taiping_ru.22" depart="37.00" departLane="TP_ZR1_1" departPos="19.91" departSpeed="0.00" departDelay="1.67" arrival="133.00" arrivalLane="mainlane_16_0" arrivalPos="997.88" arrivalSpeed="31.21" duration="96.00" routeLength="1819.17" waitingTime="0.00" waitingCount="0" stopTime="0.00" timeLoss="20.11" rerouteNo="1" devices="tripinfo_xiaokeche_taiping_ru.22 routing_xiaokeche_taiping_ru.22" vType="xiaokeche" speedFactor="1.13" vaporized=""/>
    <tripinfo id="xiaokeche_taiping_ru.38" depart="64.00" departLane="TP_ZR1_1" departPos="297.38" departSpeed="0.00" departDelay="2.97" arrival="133.00" arrivalLane="mainlane_16_1" arrivalPos="997.88" arrivalSpeed="32.94" duration="69.00" routeLength="1541.70" waitingTime="0.00" waitingCount="0" stopTime="0.00" timeLoss="11.46" rerouteNo="1" devices="tripinfo_xiaokeche_taiping_ru.38 routing_xiaokeche_taiping_ru.38" vType="xiaokeche" speedFactor="1.13" vaporized=""/>
    <tripinfo id="xiaokeche_taiping_ru.29" depart="47.00" departLane="TP_ZR1_1" departPos="196.24" departSpeed="0.00" departDelay="0.43" arrival="134.00" arrivalLane="mainlane_16_0" arrivalPos="997.88" arrivalSpeed="29.99" duration="87.00" routeLength="1642.84" waitingTime="0.00" waitingCount="0" stopTime="0.00" timeLoss="12.09" rerouteNo="1" devices="tripinfo_xiaokeche_taiping_ru.29 routing_xiaokeche_taiping_ru.29" vType="xiaokeche" speedFactor="0.92" vaporized=""/>
    <tripinfo id="xiaokeche_taiping_ru.37" depart="60.00" departLane="TP_ZR1_1" departPos="243.07" departSpeed="0.00" departDelay="0.58" arrival="135.00" arrivalLane="mainlane_16_0" arrivalPos="997.88" arrivalSpeed="32.93" duration="75.00" routeLength="1596.01" waitingTime="0.00" waitingCount="0" stopTime="0.00" timeLoss="13.79" rerouteNo="1" devices="tripinfo_xiaokeche_taiping_ru.37 routing_xiaokeche_taiping_ru.37" vType="xiaokeche" speedFactor="1.14" vaporized=""/>
    <tripinfo id="xiaokeche_taiping_ru.35" depart="58.00" departLane="TP_ZR1_1" departPos="342.63" departSpeed="0.00" departDelay="1.79" arrival="136.00" arrivalLane="mainlane_16_0" arrivalPos="997.88" arrivalSpeed="27.73" duration="78.00" routeLength="1496.45" waitingTime="0.00" waitingCount="0" stopTime="0.00" timeLoss="8.41" rerouteNo="1" devices="tripinfo_xiaokeche_taiping_ru.35 routing_xiaokeche_taiping_ru.35" vType="xiaokeche" speedFactor="0.84" vaporized=""/>
    <tripinfo id="xiaokeche_taiping_ru.33" depart="53.00" departLane="TP_ZR1_1" departPos="188.28" departSpeed="0.00" departDelay="0.00" arrival="137.00" arrivalLane="mainlane_16_0" arrivalPos="997.88" arrivalSpeed="28.43" duration="84.00" routeLength="1650.80" waitingTime="0.00" waitingCount="0" stopTime="0.00" timeLoss="13.29" rerouteNo="1" devices="tripinfo_xiaokeche_taiping_ru.33 routing_xiaokeche_taiping_ru.33" vType="xiaokeche" speedFactor="0.97" vaporized=""/>
    <tripinfo id="xiaokeche_taiping_ru.32" depart="52.00" departLane="TP_ZR1_1" departPos="174.22" departSpeed="0.00" departDelay="0.61" arrival="139.00" arrivalLane="mainlane_16_0" arrivalPos="997.88" arrivalSpeed="31.40" duration="87.00" routeLength="1664.86" waitingTime="0.00" waitingCount="0" stopTime="0.00" timeLoss="17.28" rerouteNo="1" devices="tripinfo_xiaokeche_taiping_ru.32 routing_xiaokeche_taiping_ru.32" vType="xiaokeche" speedFactor="1.02" vaporized=""/>
    <tripinfo id="xiaokeche_houjienan_chu.3" depart="12.00" departLane="mainlane01_4" departPos="51.66" departSpeed="0.00" departDelay="4.75" arrival="141.00" arrivalLane="HJN_ZC1_1" arrivalPos="42.55" arrivalSpeed="16.22" duration="129.00" routeLength="3533.97" waitingTime="0.00" waitingCount="0" stopTime="0.00" timeLoss="18.14" rerouteNo="1" devices="tripinfo_xiaokeche_houjienan_chu.3 routing_xiaokeche_houjienan_chu.3" vType="xiaokeche" speedFactor="1.00" vaporized=""/>
    <tripinfo id="xiaoxinghuoche_taiping_ru.2" depart="52.00" departLane="TP_ZR1_0" departPos="138.30" departSpeed="0.00" departDelay="3.02" arrival="141.00" arrivalLane="mainlane_16_0" arrivalPos="997.88" arrivalSpeed="27.19" duration="89.00" routeLength="1700.78" waitingTime="0.00" waitingCount="0" stopTime="0.00" timeLoss="10.91" rerouteNo="1" devices="tripinfo_xiaoxinghuoche_taiping_ru.2 routing_xiaoxinghuoche_taiping_ru.2" vType="xiaoxinghuoche" speedFactor="1.02" vaporized=""/>
    <tripinfo id="xiaokeche_taiping_ru.48" depart="78.00" departLane="TP_ZR1_1" departPos="421.60" departSpeed="0.00" departDelay="0.91" arrival="142.00" arrivalLane="mainlane_16_0" arrivalPos="997.88" arrivalSpeed="29.01" duration="64.00" routeLength="1417.48" waitingTime="0.00" waitingCount="0" stopTime="0.00" timeLoss="11.21" rerouteNo="1" devices="tripinfo_xiaokeche_taiping_ru.48 routing_xiaokeche_taiping_ru.48" vType="xiaokeche" speedFactor="0.98" vaporized=""/>
    <tripinfo id="xiaokeche_taiping_ru.36" depart="58.00" departLane="TP_ZR1_1" departPos="150.22" departSpeed="0.00" departDelay="0.18" arrival="144.00" arrivalLane="mainlane_16_0" arrivalPos="997.88" arrivalSpeed="29.90" duration="86.00" routeLength="1688.86" waitingTime="0.00" waitingCount="0" stopTime="0.00" timeLoss="11.54" rerouteNo="1" devices="tripinfo_xiaokeche_taiping_ru.36 routing_xiaokeche_taiping_ru.36" vType="xiaokeche" speedFactor="0.97" vaporized=""/>
    <tripinfo id="xiaokeche_taiping_ru.34" depart="56.00" departLane="TP_ZR1_1" departPos="82.74" departSpeed="0.00" departDelay="1.40" arrival="145.00" arrivalLane="mainlane_16_0" arrivalPos="997.88" arrivalSpeed="29.57" duration="89.00" routeLength="1756.34" waitingTime="0.00" waitingCount="0" stopTime="0.00" timeLoss="9.95" rerouteNo="1" devices="tripinfo_xiaokeche_taiping_ru.34 routing_xiaokeche_taiping_ru.34" vType="xiaokeche" speedFactor="0.97" vaporized=""/>
    <tripinfo id="dakeche_houjienan_chu.0" depart="3.00" departLane="mainlane01_0" departPos="116.49" departSpeed="0.00" departDelay="3.00" arrival="146.00" arrivalLane="HJN_ZC1_0" arrivalPos="42.55" arrivalSpeed="16.41" duration="143.00" routeLength="3469.14" waitingTime="0.00" waitingCount="0" stopTime="0.00" timeLoss="15.89" rerouteNo="1" devices="tripinfo_dakeche_houjienan_chu.0 routing_dakeche_houjienan_chu.0" vType="dakeche" speedFactor="1.00" vaporized=""/>
    <tripinfo id="xiaokeche_taiping_ru.60" depart="98.00" departLane="TP_ZR1_1" departPos="553.02" departSpeed="0.00" departDelay="1.64" arrival="146.00" arrivalLane="mainlane_16_0" arrivalPos="997.88" arrivalSpeed="33.15" duration="48.00" routeLength="1286.06" waitingTime="0.00" waitingCount="0" stopTime="0.00" timeLoss="6.15" rerouteNo="1" devices="tripinfo_xiaokeche_taiping_ru.60 routing_xiaokeche_taiping_ru.60" vType="xiaokeche" speedFactor="1.14" vaporized=""/>
    <tripinfo id="tedaxinghuoche_taiping_ru.1" depart="45.00" departLane="TP_ZR1_0" departPos="18.11" departSpeed="0.00" departDelay="4.55" arrival="148.00" arrivalLane="mainlane_16_0" arrivalPos="997.88" arrivalSpeed="27.73" duration="103.00" routeLength="1820.97" waitingTime="0.00" waitingCount="0" stopTime="0.00" timeLoss="12.73" rerouteNo="1" devices="tripinfo_tedaxinghuoche_taiping_ru.1 routing_tedaxinghuoche_taiping_ru.1" vType="tedaxinghuoche" speedFactor="0.96" vaporized=""/>
    <tripinfo id="xiaokeche_taiping_ru.50" depart="85.00" departLane="TP_ZR1_1" departPos="381.92" departSpeed="0.00" departDelay="4.70" arrival="149.00" arrivalLane="mainlane_16_0" arrivalPos="997.88" arrivalSpeed="33.25" duration="64.00" routeLength="1457.16" waitingTime="0.00" waitingCount="0" stopTime="0.00" timeLoss="9.47" rerouteNo="1" devices="tripinfo_xiaokeche_taiping_ru.50 routing_xiaokeche_taiping_ru.50" vType="xiaokeche" speedFactor="1.05" vaporized=""/>
    <tripinfo id="xiaokeche_taiping_ru.55" depart="89.00" departLane="TP_ZR1_1" departPos="441.41" departSpeed="0.00" departDelay="0.67" arrival="149.00" arrivalLane="mainlane_16_0" arrivalPos="997.88" arrivalSpeed="28.57" duration="60.00" routeLength="1397.67" waitingTime="0.00" waitingCount="0" stopTime="0.00" timeLoss="10.07" rerouteNo="1" devices="tripinfo_xiaokeche_taiping_ru.55 routing_xiaokeche_taiping_ru.55" vType="xiaokeche" speedFactor="1.02" vaporized=""/>