<?xml version="1.0" encoding="UTF-8"?>

<!-- generated on 2021-11-05 18:00:04 by Eclipse SUMO GUI Version 1.10.0
<configuration xmlns:xsi="http://www.w3.org/2001/XMLSchema-instance" xsi:noNamespaceSchemaLocation="http://sumo.dlr.de/xsd/sumoConfiguration.xsd">

    <input>
        <net-file value="F:\sumo_pro/traci_main\guangshen\guangshen\guangshen_ALL.net.xml"/>
        <route-files value="F:\sumo_pro/traci_main\guangshen\guangshen\guangshen_ALL.rou.xml"/>
    </input>

    <output>
        <tripinfo-output value="F:\sumo_pro\traci_main\guangshen\guangshen/tripinfo2_TEST.xml"/>
    </output>

    <time>
        <begin value="0"/>
        <end value="20000"/>
    </time>

    <report>
        <verbose value="true"/>
        <duration-log.statistics value="true"/>
    </report>

    <traci_server>
        <remote-port value="52807"/>
    </traci_server>

    <gui_only>
        <gui-settings-file value="F:\sumo_pro/traci_main\guangshen\guangshen\gui-settings2.cfg"/>
        <quit-on-end value="false"/>
        <start value="true"/>
    </gui_only>

</configuration>
-->

<tripinfos xmlns:xsi="http://www.w3.org/2001/XMLSchema-instance" xsi:noNamespaceSchemaLocation="http://sumo.dlr.de/xsd/tripinfo_file.xsd">
    <tripinfo id="xiaokeche4.0" depart="0.00" departLane="mainlane01_0" departPos="4.10" departSpeed="0.00" departDelay="0.00" arrival="887.00" arrivalLane="mainlane_16_0" arrivalPos="997.88" arrivalSpeed="13.21" duration="887.00" routeLength="12050.57" waitingTime="0.00" waitingCount="0" stopTime="0.00" timeLoss="44.62" rerouteNo="1" devices="tripinfo_xiaokeche4.0 routing_xiaokeche4.0" vType="xiaokeche" speedFactor="1.03" vaporized=""/>
    <tripinfo id="xiaokeche4.3" depart="8.00" departLane="mainlane01_0" departPos="4.10" departSpeed="0.00" departDelay="7.70" arrival="909.00" arrivalLane="mainlane_16_0" arrivalPos="997.88" arrivalSpeed="14.19" duration="901.00" routeLength="12050.57" waitingTime="0.00" waitingCount="0" stopTime="0.00" timeLoss="67.46" rerouteNo="1" devices="tripinfo_xiaokeche4.3 routing_xiaokeche4.3" vType="xiaokeche" speedFactor="1.04" vaporized=""/>
    <tripinfo id="xiaokeche4.2" depart="5.00" departLane="mainlane01_0" departPos="4.10" departSpeed="0.00" departDelay="4.80" arrival="946.00" arrivalLane="mainlane_16_1" arrivalPos="997.88" arrivalSpeed="12.73" duration="941.00" routeLength="12050.57" waitingTime="0.00" waitingCount="0" stopTime="0.00" timeLoss="77.16" rerouteNo="1" devices="tripinfo_xiaokeche4.2 routing_xiaokeche4.2" vType="xiaokeche" speedFactor="1.01" vaporized=""/>
    <tripinfo id="xiaokeche4.1" depart="3.00" departLane="mainlane01_0" departPos="4.10" departSpeed="0.00" departDelay="2.90" arrival="947.00" arrivalLane="mainlane_16_0" arrivalPos="997.88" arrivalSpeed="13.20" duration="944.00" routeLength="12050.57" waitingTime="0.00" waitingCount="0" stopTime="0.00" timeLoss="48.26" rerouteNo="1" devices="tripinfo_xiaokeche4.1 routing_xiaokeche4.1" vType="xiaokeche" speedFactor="0.97" vaporized=""/>
    <tripinfo id="xiaokeche4.4" depart="11.00" departLane="mainlane01_0" departPos="4.10" departSpeed="0.00" departDelay="10.60" arrival="949.00" arrivalLane="mainlane_16_0" arrivalPos="997.88" arrivalSpeed="13.78" duration="938.00" routeLength="12050.57" waitingTime="0.00" waitingCount="0" stopTime="0.00" timeLoss="82.53" rerouteNo="1" devices="tripinfo_xiaokeche4.4 routing_xiaokeche4.4" vType="xiaokeche" speedFactor="1.02" vaporized=""/>
    <tripinfo id="xiaokeche4.6" depart="17.00" departLane="mainlane01_0" departPos="4.10" departSpeed="0.00" departDelay="16.40" arrival="950.00" arrivalLane="mainlane_16_0" arrivalPos="997.88" arrivalSpeed="13.57" duration="933.00" routeLength="12050.57" waitingTime="0.00" waitingCount="0" stopTime="0.00" timeLoss="84.77" rerouteNo="1" devices="tripinfo_xiaokeche4.6 routing_xiaokeche4.6" vType="xiaokeche" speedFactor="1.02" vaporized=""/>
    <tripinfo id="xiaokeche4.10" depart="29.00" departLane="mainlane01_0" departPos="4.10" departSpeed="0.00" departDelay="28.00" arrival="952.00" arrivalLane="mainlane_16_0" arrivalPos="997.88" arrivalSpeed="13.82" duration="923.00" routeLength="12050.57" waitingTime="0.00" waitingCount="0" stopTime="0.00" timeLoss="92.86" rerouteNo="1" devices="tripinfo_xiaokeche4.10 routing_xiaokeche4.10" vType="xiaokeche" speedFactor="1.05" vaporized=""/>
    <tripinfo id="xiaokeche4.19" depart="55.00" departLane="mainlane01_0" departPos="4.10" departSpeed="0.00" departDelay="53.10" arrival="952.00" arrivalLane="mainlane_16_1" arrivalPos="997.88" arrivalSpeed="14.85" duration="897.00" routeLength="12050.57" waitingTime="0.00" waitingCount="0" stopTime="0.00" timeLoss="92.43" rerouteNo="1" devices="tripinfo_xiaokeche4.19 routing_xiaokeche4.19" vType="xiaokeche" speedFactor="1.08" vaporized=""/>
    <tripinfo id="xiaokeche4.11" depart="32.00" departLane="mainlane01_0" departPos="4.10" departSpeed="0.00" departDelay="30.90" arrival="968.00" arrivalLane="mainlane_16_0" arrivalPos="997.88" arrivalSpeed="13.51" duration="936.00" routeLength="12050.57" waitingTime="0.00" waitingCount="0" stopTime="0.00" timeLoss="79.32" rerouteNo="1" devices="tripinfo_xiaokeche4.11 routing_xiaokeche4.11" vType="xiaokeche" speedFactor="1.01" vaporized=""/>
    <tripinfo id="xiaokeche4.13" depart="38.00" departLane="mainlane01_0" departPos="4.10" departSpeed="0.00" departDelay="36.70" arrival="982.00" arrivalLane="mainlane_16_0" arrivalPos="997.88" arrivalSpeed="13.61" duration="944.00" routeLength="12050.57" waitingTime="0.00" waitingCount="0" stopTime="0.00" timeLoss="126.43" rerouteNo="1" devices="tripinfo_xiaokeche4.13 routing_xiaokeche4.13" vType="xiaokeche" speedFactor="1.06" vaporized=""/>
    <tripinfo id="xiaokeche4.8" depart="23.00" departLane="mainlane01_0" departPos="4.10" departSpeed="0.00" departDelay="22.20" arrival="985.00" arrivalLane="mainlane_16_0" arrivalPos="997.88" arrivalSpeed="12.27" duration="962.00" routeLength="12050.57" waitingTime="0.00" waitingCount="0" stopTime="0.00" timeLoss="66.35" rerouteNo="1" devices="tripinfo_xiaokeche4.8 routing_xiaokeche4.8" vType="xiaokeche" speedFactor="0.97" vaporized=""/>
    <tripinfo id="xiaokeche4.14" depart="41.00" departLane="mainlane01_0" departPos="4.10" departSpeed="0.00" departDelay="39.60" arrival="1001.00" arrivalLane="mainlane_16_0" arrivalPos="997.88" arrivalSpeed="13.54" duration="960.00" routeLength="12050.57" waitingTime="0.00" waitingCount="0" stopTime="0.00" timeLoss="87.88" rerouteNo="1" devices="tripinfo_xiaokeche4.14 routing_xiaokeche4.14" vType="xiaokeche" speedFactor="1.00" vaporized=""/>
    <tripinfo id="xiaokeche4.5" depart="14.00" departLane="mainlane01_0" departPos="4.10" departSpeed="0.00" departDelay="13.50" arrival="1014.00" arrivalLane="mainlane_16_0" arrivalPos="997.88" arrivalSpeed="12.04" duration="1000.00" routeLength="12050.57" waitingTime="0.00" waitingCount="0" stopTime="0.00" timeLoss="52.06" rerouteNo="1" devices="tripinfo_xiaokeche4.5 routing_xiaokeche4.5" vType="xiaokeche" speedFactor="0.92" vaporized=""/>
    <tripinfo id="xiaokeche4.7" depart="20.00" departLane="mainlane01_0" departPos="4.10" departSpeed="0.00" departDelay="19.30" arrival="1014.00" arrivalLane="mainlane_16_1" arrivalPos="997.88" arrivalSpeed="13.03" duration="994.00" routeLength="12050.57" waitingTime="0.00" waitingCount="0" stopTime="0.00" timeLoss="73.31" rerouteNo="1" devices="tripinfo_xiaokeche4.7 routing_xiaokeche4.7" vType="xiaokeche" speedFactor="0.94" vaporized=""/>
    <tripinfo id="xiaokeche4.12" depart="35.00" departLane="mainlane01_0" departPos="4.10" departSpeed="0.00" departDelay="33.80" arrival="1015.00" arrivalLane="mainlane_16_1" arrivalPos="997.88" arrivalSpeed="14.13" duration="980.00" routeLength="12050.57" waitingTime="0.00" waitingCount="0" stopTime="0.00" timeLoss="132.26" rerouteNo="1" devices="tripinfo_xiaokeche4.12 routing_xiaokeche4.12" vType="xiaokeche" speedFactor="1.02" vaporized=""/>
    <tripinfo id="xiaokeche4.9" depart="26.00" departLane="mainlane01_0" departPos="4.10" departSpeed="0.00" departDelay="25.10" arrival="1016.00" arrivalLane="mainlane_16_0" arrivalPos="997.88" arrivalSpeed="11.63" duration="990.00" routeLength="12050.57" waitingTime="0.00" waitingCount="0" stopTime="0.00" timeLoss="55.17" rerouteNo="1" devices="tripinfo_xiaokeche4.9 routing_xiaokeche4.9" vType="xiaokeche" speedFactor="0.93" vaporized=""/>
    <tripinfo id="xiaokeche4.15" depart="44.00" departLane="mainlane01_0" departPos="4.10" departSpeed="0.00" departDelay="42.50" arrival="1018.00" arrivalLane="mainlane_16_0" arrivalPos="997.88" arrivalSpeed="13.06" duration="974.00" routeLength="12050.57" waitingTime="0.00" waitingCount="0" stopTime="0.00" timeLoss="72.63" rerouteNo="1" devices="tripinfo_xiaokeche4.15 routing_xiaokeche4.15" vType="xiaokeche" speedFactor="0.96" vaporized=""/>
    <tripinfo id="xiaokeche4.17" depart="50.00" departLane="mainlane01_0" departPos="4.10" departSpeed="0.00" departDelay="48.30" arrival="1019.00" arrivalLane="mainlane_16_0" arrivalPos="997.88" arrivalSpeed="12.53" duration="969.00" routeLength="12050.57" waitingTime="0.00" waitingCount="0" stopTime="0.00" timeLoss="75.06" rerouteNo="1" devices="tripinfo_xiaokeche4.17 routing_xiaokeche4.17" vType="xiaokeche" speedFactor="0.97" vaporized=""/>
    <tripinfo id="xiaokeche4.18" depart="52.00" departLane="mainlane01_0" departPos="4.10" departSpeed="0.00" departDelay="50.20" arrival="1020.00" arrivalLane="mainlane_16_1" arrivalPos="997.88" arrivalSpeed="13.27" duration="968.00" routeLength="12050.57" waitingTime="0.00" waitingCount="0" stopTime="0.00" timeLoss="71.16" rerouteNo="1" devices="tripinfo_xiaokeche4.18 routing_xiaokeche4.18" vType="xiaokeche" speedFactor="0.97" vaporized=""/>
    <tripinfo id="xiaokeche4.20" depart="58.00" departLane="mainlane01_0" departPos="4.10" departSpeed="0.00" departDelay="56.00" arrival="1021.00" arrivalLane="mainlane_16_0" arrivalPos="997.88" arrivalSpeed="12.92" duration="963.00" routeLength="12050.57" waitingTime="0.00" waitingCount="0" stopTime="0.00" timeLoss="102.75" rerouteNo="1" devices="tripinfo_xiaokeche4.20 routing_xiaokeche4.20" vType="xiaokeche" speedFactor="1.01" vaporized=""/>
    <tripinfo id="xiaokeche4.21" depart="61.00" departLane="mainlane01_0" departPos="4.10" departSpeed="0.00" departDelay="58.90" arrival="1023.00" arrivalLane="mainlane_16_1" arrivalPos="997.88" arrivalSpeed="12.78" duration="962.00" routeLength="12050.57" waitingTime="0.00" waitingCount="0" stopTime="0.00" timeLoss="98.42" rerouteNo="1" devices="tripinfo_xiaokeche4.21 routing_xiaokeche4.21" vType="xiaokeche" speedFactor="1.01" vaporized=""/>
    <tripinfo id="xiaokeche4.16" depart="46.00" departLane="mainlane01_0" departPos="4.10" departSpeed="0.00" departDelay="44.40" arrival="1024.00" arrivalLane="mainlane_16_0" arrivalPos="997.88" arrivalSpeed="12.36" duration="978.00" routeLength="12050.57" waitingTime="0.00" waitingCount="0" stopTime="0.00" timeLoss="53.85" rerouteNo="1" devices="tripinfo_xiaokeche4.16 routing_xiaokeche4.16" vType="xiaokeche" speedFactor="0.94" vaporized=""/>
    <tripinfo id="xiaokeche4.22" depart="64.00" departLane="mainlane01_0" departPos="4.10" departSpeed="0.00" departDelay="61.80" arrival="1026.00" arrivalLane="mainlane_16_0" arrivalPos="997.88" arrivalSpeed="12.84" duration="962.00" routeLength="12050.57" waitingTime="0.00" waitingCount="0" stopTime="0.00" timeLoss="82.73" rerouteNo="1" devices="tripinfo_xiaokeche4.22 routing_xiaokeche4.22" vType="xiaokeche" speedFactor="0.99" vaporized=""/>
    <tripinfo id="xiaokeche4.31" depart="90.00" departLane="mainlane01_0" departPos="4.10" departSpeed="0.00" departDelay="86.90" arrival="1028.00" arrivalLane="mainlane_16_0" arrivalPos="997.88" arrivalSpeed="14.46" duration="938.00" routeLength="12050.57" waitingTime="0.00" waitingCount="0" stopTime="0.00" timeLoss="131.91" rerouteNo="1" devices="tripinfo_xiaokeche4.31 routing_xiaokeche4.31" vType="xiaokeche" speedFactor="1.08" vaporized=""/>
    <tripinfo id="xiaokeche4.23" depart="67.00" departLane="mainlane01_0" departPos="4.10" departSpeed="0.00" departDelay="64.70" arrival="1037.00" arrivalLane="mainlane_16_0" arrivalPos="997.88" arrivalSpeed="12.37" duration="970.00" routeLength="12050.57" waitingTime="0.00" waitingCount="0" stopTime="0.00" timeLoss="50.91" rerouteNo="1" devices="tripinfo_xiaokeche4.23 routing_xiaokeche4.23" vType="xiaokeche" speedFactor="0.94" vaporized=""/>
    <tripinfo id="xiaokeche4.29" depart="84.00" departLane="mainlane01_0" departPos="4.10" departSpeed="0.00" departDelay="81.10" arrival="1041.00" arrivalLane="mainlane_16_0" arrivalPos="997.88" arrivalSpeed="12.46" duration="957.00" routeLength="12050.57" waitingTime="0.00" waitingCount="0" stopTime="0.00" timeLoss="58.10" rerouteNo="1" devices="tripinfo_xiaokeche4.29 routing_xiaokeche4.29" vType="xiaokeche" speedFactor="0.97" vaporized=""/>
    <tripinfo id="xiaokeche4.25" depart="73.00" departLane="mainlane01_0" departPos="4.10" departSpeed="0.00" departDelay="70.50" arrival="1062.00" arrivalLane="mainlane_16_0" arrivalPos="997.88" arrivalSpeed="12.97" duration="989.00" routeLength="12050.57" waitingTime="0.00" waitingCount="0" stopTime="0.00" timeLoss="61.95" rerouteNo="1" devices="tripinfo_xiaokeche4.25 routing_xiaokeche4.25" vType="xiaokeche" speedFactor="0.94" vaporized=""/>
    <tripinfo id="xiaokeche4.26" depart="75.00" departLane="mainlane01_0" departPos="4.10" departSpeed="0.00" departDelay="72.40" arrival="1074.00" arrivalLane="mainlane_16_0" arrivalPos="997.88" arrivalSpeed="12.31" duration="999.00" routeLength="12050.57" waitingTime="0.00" waitingCount="0" stopTime="0.00" timeLoss="93.28" rerouteNo="1" devices="tripinfo_xiaokeche4.26 routing_xiaokeche4.26" vType="xiaokeche" speedFactor="0.96" vaporized=""/>
    <tripinfo id="xiaokeche4.28" depart="81.00" departLane="mainlane01_0" departPos="4.10" departSpeed="0.00" departDelay="78.20" arrival="1075.00" arrivalLane="mainlane_16_0" arrivalPos="997.88" arrivalSpeed="14.09" duration="994.00" routeLength="12050.57" waitingTime="0.00" waitingCount="0" stopTime="0.00" timeLoss="179.91" rerouteNo="1" devices="tripinfo_xiaokeche4.28 routing_xiaokeche4.28" vType="xiaokeche" speedFactor="1.07" vaporized=""/>
    <tripinfo id="xiaokeche4.24" depart="70.00" departLane="mainlane01_0" departPos="4.10" departSpeed="0.00" departDelay="67.60" arrival="1076.00" arrivalLane="mainlane_16_0" arrivalPos="997.88" arrivalSpeed="12.26" duration="1006.00" routeLength="12050.57" waitingTime="0.00" waitingCount="0" stopTime="0.00" timeLoss="54.70" rerouteNo="1" devices="tripinfo_xiaokeche4.24 routing_xiaokeche4.24" vType="xiaokeche" speedFactor="0.91" vaporized=""/>
    <tripinfo id="xiaokeche4.27" depart="78.00" departLane="mainlane01_0" departPos="4.10" departSpeed="0.00" departDelay="75.30" arrival="1077.00" arrivalLane="mainlane_16_1" arrivalPos="997.88" arrivalSpeed="13.44" duration="999.00" routeLength="12050.57" waitingTime="0.00" waitingCount="0" stopTime="0.00" timeLoss="108.28" rerouteNo="1" devices="tripinfo_xiaokeche4.27 routing_xiaokeche4.27" vType="xiaokeche" speedFactor="0.97" vaporized=""/>
    <tripinfo id="xiaokeche4.32" depart="93.00" departLane="mainlane01_0" departPos="4.10" departSpeed="0.00" departDelay="89.80" arrival="1077.00" arrivalLane="mainlane_16_0" arrivalPos="997.88" arrivalSpeed="13.06" duration="984.00" routeLength="12050.57" waitingTime="0.00" waitingCount="0" stopTime="0.00" timeLoss="118.34" rerouteNo="1" devices="tripinfo_xiaokeche4.32 routing_xiaokeche4.32" vType="xiaokeche" speedFactor="1.00" vaporized=""/>
    <tripinfo id="xiaokeche4.30" depart="87.00" departLane="mainlane01_0" departPos="4.10" departSpeed="0.00" departDelay="84.00" arrival="1079.00" arrivalLane="mainlane_16_0" arrivalPos="997.88" arrivalSpeed="13.97" duration="992.00" routeLength="12050.57" waitingTime="0.00" waitingCount="0" stopTime="0.00" timeLoss="194.82" rerouteNo="1" devices="tripinfo_xiaokeche4.30 routing_xiaokeche4.30" vType="xiaokeche" speedFactor="1.09" vaporized=""/>
    <tripinfo id="xiaokeche4.33" depart="96.00" departLane="mainlane01_0" departPos="4.10" departSpeed="0.00" departDelay="92.70" arrival="1079.00" arrivalLane="mainlane_16_1" arrivalPos="997.88" arrivalSpeed="14.03" duration="983.00" routeLength="12050.57" waitingTime="0.00" waitingCount="0" stopTime="0.00" timeLoss="183.45" rerouteNo="1" devices="tripinfo_xiaokeche4.33 routing_xiaokeche4.33" vType="xiaokeche" speedFactor="1.09" vaporized=""/>
    <tripinfo id="xiaokeche4.34" depart="99.00" departLane="mainlane01_0" departPos="4.10" departSpeed="0.00" departDelay="95.60" arrival="1081.00" arrivalLane="mainlane_16_0" arrivalPos="997.88" arrivalSpeed="13.77" duration="982.00" routeLength="12050.57" waitingTime="0.00" waitingCount="0" stopTime="0.00" timeLoss="111.20" rerouteNo="1" devices="tripinfo_xiaokeche4.34 routing_xiaokeche4.34" vType="xiaokeche" speedFactor="1.00" vaporized=""/>
    <tripinfo id="xiaokeche4.35" depart="102.00" departLane="mainlane01_0" departPos="4.10" departSpeed="0.00" departDelay="98.50" arrival="1081.00" arrivalLane="mainlane_16_1" arrivalPos="997.88" arrivalSpeed="12.91" duration="979.00" routeLength="12050.57" waitingTime="0.00" waitingCount="0" stopTime="0.00" timeLoss="119.58" rerouteNo="1" devices="tripinfo_xiaokeche4.35 routing_xiaokeche4.35" vType="xiaokeche" speedFactor="1.01" vaporized=""/>
    <tripinfo id="xiaokeche4.37" depart="108.00" departLane="mainlane01_0" departPos="4.10" departSpeed="0.00" departDelay="104.30" arrival="1082.00" arrivalLane="mainlane_16_0" arrivalPos="997.88" arrivalSpeed="14.46" duration="974.00" routeLength="12050.57" waitingTime="0.00" waitingCount="0" stopTime="0.00" timeLoss="177.73" rerouteNo="1" devices="tripinfo_xiaokeche4.37 routing_xiaokeche4.37" vType="xiaokeche" speedFactor="1.09" vaporized=""/>
    <tripinfo id="xiaokeche4.36" depart="105.00" departLane="mainlane01_0" departPos="4.10" departSpeed="0.00" departDelay="101.40" arrival="1084.00" arrivalLane="mainlane_16_0" arrivalPos="997.88" arrivalSpeed="13.68" duration="979.00" routeLength="12050.57" waitingTime="0.00" waitingCount="0" stopTime="0.00" timeLoss="99.59" rerouteNo="1" devices="tripinfo_xiaokeche4.36 routing_xiaokeche4.36" vType="xiaokeche" speedFactor="0.99" vaporized=""/>
    <tripinfo id="xiaokeche4.38" depart="111.00" departLane="mainlane01_0" departPos="4.10" departSpeed="0.00" departDelay="107.20" arrival="1084.00" arrivalLane="mainlane_16_1" arrivalPos="997.88" arrivalSpeed="14.43" duration="973.00" routeLength="12050.57" waitingTime="0.00" waitingCount="0" stopTime="0.00" timeLoss="147.38" rerouteNo="1" devices="tripinfo_xiaokeche4.38 routing_xiaokeche4.38" vType="xiaokeche" speedFactor="1.05" vaporized=""/>
    <tripinfo id="xiaokeche4.41" depart="120.00" departLane="mainlane01_0" departPos="4.10" departSpeed="0.00" departDelay="115.90" arrival="1090.00" arrivalLane="mainlane_16_0" arrivalPos="997.88" arrivalSpeed="12.83" duration="970.00" routeLength="12050.57" waitingTime="0.00" waitingCount="0" stopTime="0.00" timeLoss="83.32" rerouteNo="1" devices="tripinfo_xiaokeche4.41 routing_xiaokeche4.41" vType="xiaokeche" speedFactor="0.98" vaporized=""/>
    <tripinfo id="xiaokeche4.40" depart="117.00" departLane="mainlane01_0" departPos="4.10" departSpeed="0.00" departDelay="113.00" arrival="1091.00" arrivalLane="mainlane_16_1" arrivalPos="997.88" arrivalSpeed="13.32" duration="974.00" routeLength="12050.57" waitingTime="0.00" waitingCount="0" stopTime="0.00" timeLoss="118.75" rerouteNo="1" devices="tripinfo_xiaokeche4.40 routing_xiaokeche4.40" vType="xiaokeche" speedFactor="1.02" vaporized=""/>
    <tripinfo id="xiaokeche4.42" depart="122.00" departLane="mainlane01_0" departPos="4.10" departSpeed="0.00" departDelay="117.80" arrival="1092.00" arrivalLane="mainlane_16_0" arrivalPos="997.88" arrivalSpeed="13.88" duration="970.00" routeLength="12050.57" waitingTime="0.00" waitingCount="0" stopTime="0.00" timeLoss="140.55" rerouteNo="1" devices="tripinfo_xiaokeche4.42 routing_xiaokeche4.42" vType="xiaokeche" speedFactor="1.05" vaporized=""/>
    <tripinfo id="xiaokeche4.39" depart="114.00" departLane="mainlane01_0" departPos="4.10" departSpeed="0.00" departDelay="110.10" arrival="1095.00" arrivalLane="mainlane_16_0" arrivalPos="997.88" arrivalSpeed="12.33" duration="981.00" routeLength="12050.57" waitingTime="0.00" waitingCount="0" stopTime="0.00" timeLoss="67.17" rerouteNo="1" devices="tripinfo_xiaokeche4.39 routing_xiaokeche4.39" vType="xiaokeche" speedFactor="0.95" vaporized=""/>
    <tripinfo id="xiaokeche4.43" depart="126.00" departLane="mainlane01_0" departPos="4.10" departSpeed="0.00" departDelay="121.70" arrival="1096.00" arrivalLane="mainlane_16_0" arrivalPos="997.88" arrivalSpeed="12.99" duration="970.00" routeLength="12050.57" waitingTime="0.00" waitingCount="0" stopTime="0.00" timeLoss="118.28" rerouteNo="1" devices="tripinfo_xiaokeche4.43 routing_xiaokeche4.43" vType="xiaokeche" speedFactor="1.02" vaporized=""/>
    <tripinfo id="xiaokeche4.45" depart="131.00" departLane="mainlane01_0" departPos="4.10" departSpeed="0.00" departDelay="126.50" arrival="1096.00" arrivalLane="mainlane_16_1" arrivalPos="997.88" arrivalSpeed="14.03" duration="965.00" routeLength="12050.57" waitingTime="0.00" waitingCount="0" stopTime="0.00" timeLoss="133.24" rerouteNo="1" devices="tripinfo_xiaokeche4.45 routing_xiaokeche4.45" vType="xiaokeche" speedFactor="1.04" vaporized=""/>
    <tripinfo id="xiaokeche4.44" depart="129.00" departLane="mainlane01_0" departPos="4.10" departSpeed="0.00" departDelay="124.60" arrival="1098.00" arrivalLane="mainlane_16_0" arrivalPos="997.88" arrivalSpeed="13.17" duration="969.00" routeLength="12050.57" waitingTime="0.00" waitingCount="0" stopTime="0.00" timeLoss="119.26" rerouteNo="1" devices="tripinfo_xiaokeche4.44 routing_xiaokeche4.44" vType="xiaokeche" speedFactor="1.02" vaporized=""/>
    <tripinfo id="xiaokeche4.46" depart="135.00" departLane="mainlane01_0" departPos="4.10" departSpeed="0.00" departDelay="130.40" arrival="1100.00" arrivalLane="mainlane_16_0" arrivalPos="997.88" arrivalSpeed="13.36" duration="965.00" routeLength="12050.57" waitingTime="0.00" waitingCount="0" stopTime="0.00" timeLoss="96.20" rerouteNo="1" devices="tripinfo_xiaokeche4.46 routing_xiaokeche4.46" vType="xiaokeche" speedFactor="1.00" vaporized=""/>
    <tripinfo id="xiaokeche4.61" depart="178.00" departLane="mainlane01_0" departPos="4.10" departSpeed="0.00" departDelay="171.90" arrival="1100.00" arrivalLane="mainlane_16_1" arrivalPos="997.88" arrivalSpeed="13.63" duration="922.00" routeLength="12050.57" waitingTime="0.00" waitingCount="0" stopTime="0.00" timeLoss="102.48" rerouteNo="1" devices="tripinfo_xiaokeche4.61 routing_xiaokeche4.61" vType="xiaokeche" speedFactor="1.06" vaporized=""/>
    <tripinfo id="xiaokeche4.47" depart="137.00" departLane="mainlane01_0" departPos="4.10" departSpeed="0.00" departDelay="132.30" arrival="1106.00" arrivalLane="mainlane_16_0" arrivalPos="997.88" arrivalSpeed="12.60" duration="969.00" routeLength="12050.57" waitingTime="0.00" waitingCount="0" stopTime="0.00" timeLoss="55.84" rerouteNo="1" devices="tripinfo_xiaokeche4.47 routing_xiaokeche4.47" vType="xiaokeche" speedFactor="0.95" vaporized=""/>
    <tripinfo id="xiaokeche4.53" depart="155.00" departLane="mainlane01_0" departPos="4.10" departSpeed="0.00" departDelay="149.70" arrival="1112.00" arrivalLane="mainlane_16_0" arrivalPos="997.88" arrivalSpeed="14.42" duration="957.00" routeLength="12050.57" waitingTime="0.00" waitingCount="0" stopTime="0.00" timeLoss="128.30" rerouteNo="1" devices="tripinfo_xiaokeche4.53 routing_xiaokeche4.53" vType="xiaokeche" speedFactor="1.05" vaporized=""/>
    <tripinfo id="xiaokeche4.55" depart="161.00" departLane="mainlane01_0" departPos="4.10" departSpeed="0.00" departDelay="155.50" arrival="1117.00" arrivalLane="mainlane_16_0" arrivalPos="997.88" arrivalSpeed="12.65" duration="956.00" routeLength="12050.57" waitingTime="0.00" waitingCount="0" stopTime="0.00" timeLoss="86.51" rerouteNo="1" devices="tripinfo_xiaokeche4.55 routing_xiaokeche4.55" vType="xiaokeche" speedFactor="1.00" vaporized=""/>
    <tripinfo id="xiaokeche4.48" depart="141.00" departLane="mainlane01_0" departPos="4.10" departSpeed="0.00" departDelay="136.20" arrival="1119.00" arrivalLane="mainlane_16_0" arrivalPos="997.88" arrivalSpeed="12.55" duration="978.00" routeLength="12050.57" waitingTime="0.00" waitingCount="0" stopTime="0.00" timeLoss="52.98" rerouteNo="1" devices="tripinfo_xiaokeche4.48 routing_xiaokeche4.48" vType="xiaokeche" speedFactor="0.94" vaporized=""/>
    <tripinfo id="xiaokeche4.49" depart="144.00" departLane="mainlane01_0" departPos="4.10" departSpeed="0.00" departDelay="139.10" arrival="1137.00" arrivalLane="mainlane_16_0" arrivalPos="997.88" arrivalSpeed="12.36" duration="993.00" routeLength="12050.57" waitingTime="0.00" waitingCount="0" stopTime="0.00" timeLoss="54.50" rerouteNo="1" devices="tripinfo_xiaokeche4.49 routing_xiaokeche4.49" vType="xiaokeche" speedFactor="0.93" vaporized=""/>
    <tripinfo id="xiaokeche4.50" depart="147.00" departLane="mainlane01_0" departPos="4.10" departSpeed="0.00" departDelay="142.00" arrival="1138.00" arrivalLane="mainlane_16_1" arrivalPos="997.88" arrivalSpeed="11.68" duration="991.00" routeLength="12050.57" waitingTime="0.00" waitingCount="0" stopTime="0.00" timeLoss="55.36" rerouteNo="1" devices="tripinfo_xiaokeche4.50 routing_xiaokeche4.50" vType="xiaokeche" speedFactor="0.93" vaporized=""/>
    <tripinfo id="xiaokeche4.54" depart="158.00" departLane="mainlane01_0" departPos="4.10" departSpeed="0.00" departDelay="152.60" arrival="1138.00" arrivalLane="mainlane_16_0" arrivalPos="997.88" arrivalSpeed="13.66" duration="980.00" routeLength="12050.57" waitingTime="0.00" waitingCount="0" stopTime="0.00" timeLoss="113.61" rerouteNo="1" devices="tripinfo_xiaokeche4.54 routing_xiaokeche4.54" vType="xiaokeche" speedFactor="1.00" vaporized=""/>
    <tripinfo id="xiaokeche4.51" depart="149.00" departLane="mainlane01_0" departPos="4.10" departSpeed="0.00" departDelay="143.90" arrival="1140.00" arrivalLane="mainlane_16_1" arrivalPos="997.88" arrivalSpeed="14.73" duration="991.00" routeLength="12050.57" waitingTime="0.00" waitingCount="0" stopTime="0.00" timeLoss="190.21" rerouteNo="1" devices="tripinfo_xiaokeche4.51 routing_xiaokeche4.51" vType="xiaokeche" speedFactor="1.08" vaporized=""/>
    <tripinfo id="xiaokeche4.52" depart="152.00" departLane="mainlane01_0" departPos="4.10" departSpeed="0.00" departDelay="146.80" arrival="1140.00" arrivalLane="mainlane_16_0" arrivalPos="997.88" arrivalSpeed="13.86" duration="988.00" routeLength="12050.57" waitingTime="0.00" waitingCount="0" stopTime="0.00" timeLoss="127.15" rerouteNo="1" devices="tripinfo_xiaokeche4.52 routing_xiaokeche4.52" vType="xiaokeche" speedFactor="1.01" vaporized=""/>
    <tripinfo id="xiaokeche4.57" depart="167.00" departLane="mainlane01_0" departPos="4.10" departSpeed="0.00" departDelay="161.30" arrival="1141.00" arrivalLane="mainlane_16_1" arrivalPos="997.88" arrivalSpeed="14.50" duration="974.00" routeLength="12050.57" waitingTime="0.00" waitingCount="0" stopTime="0.00" timeLoss="163.87" rerouteNo="1" devices="tripinfo_xiaokeche4.57 routing_xiaokeche4.57" vType="xiaokeche" speedFactor="1.07" vaporized=""/>
    <tripinfo id="xiaokeche4.58" depart="170.00" departLane="mainlane01_0" departPos="4.10" departSpeed="0.00" departDelay="164.20" arrival="1142.00" arrivalLane="mainlane_16_0" arrivalPos="997.88" arrivalSpeed="13.13" duration="972.00" routeLength="12050.57" waitingTime="0.00" waitingCount="0" stopTime="0.00" timeLoss="114.11" rerouteNo="1" devices="tripinfo_xiaokeche4.58 routing_xiaokeche4.58" vType="xiaokeche" speedFactor="1.01" vaporized=""/>
    <tripinfo id="xiaokeche4.56" depart="164.00" departLane="mainlane01_0" departPos="4.10" departSpeed="0.00" departDelay="158.40" arrival="1145.00" arrivalLane="mainlane_16_0" arrivalPos="997.88" arrivalSpeed="11.97" duration="981.00" routeLength="12050.57" waitingTime="0.00" waitingCount="0" stopTime="0.00" timeLoss="67.07" rerouteNo="1" devices="tripinfo_xiaokeche4.56 routing_xiaokeche4.56" vType="xiaokeche" speedFactor="0.95" vaporized=""/>
    <tripinfo id="xiaokeche4.59" depart="172.00" departLane="mainlane01_0" departPos="4.10" departSpeed="0.00" departDelay="166.10" arrival="1145.00" arrivalLane="mainlane_16_1" arrivalPos="997.88" arrivalSpeed="13.02" duration="973.00" routeLength="12050.57" waitingTime="0.00" waitingCount="0" stopTime="0.00" timeLoss="91.79" rerouteNo="1" devices="tripinfo_xiaokeche4.59 routing_xiaokeche4.59" vType="xiaokeche" speedFactor="0.98" vaporized=""/>
    <tripinfo id="xiaokeche4.60" depart="175.00" departLane="mainlane01_0" departPos="4.10" departSpeed="0.00" departDelay="169.00" arrival="1147.00" arrivalLane="mainlane_16_1" arrivalPos="997.88" arrivalSpeed="13.90" duration="972.00" routeLength="12050.57" waitingTime="0.00" waitingCount="0" stopTime="0.00" timeLoss="138.20" rerouteNo="1" devices="tripinfo_xiaokeche4.60 routing_xiaokeche4.60" vType="xiaokeche" speedFactor="1.04" vaporized=""/>
    <tripinfo id="xiaokeche4.62" depart="181.00" departLane="mainlane01_0" departPos="4.10" departSpeed="0.00" departDelay="174.80" arrival="1147.00" arrivalLane="mainlane_16_0" arrivalPos="997.88" arrivalSpeed="13.22" duration="966.00" routeLength="12050.57" waitingTime="0.00" waitingCount="0" stopTime="0.00" timeLoss="104.65" rerouteNo="1" devices="tripinfo_xiaokeche4.62 routing_xiaokeche4.62" vType="xiaokeche" speedFactor="1.01" vaporized=""/>
    <tripinfo id="xiaokeche4.63" depart="184.00" departLane="mainlane01_0" departPos="4.10" departSpeed="0.00" departDelay="177.70" arrival="1150.00" arrivalLane="mainlane_16_0" arrivalPos="997.88" arrivalSpeed="13.22" duration="966.00" routeLength="12050.57" waitingTime="0.00" waitingCount="0" stopTime="0.00" timeLoss="92.18" rerouteNo="1" devices="tripinfo_xiaokeche4.63 routing_xiaokeche4.63" vType="xiaokeche" speedFactor="0.99" vaporized=""/>