<?xml version="1.0" encoding="UTF-8"?>

<!-- generated on 2021-11-05 19:13:21 by Eclipse SUMO GUI Version 1.10.0
<configuration xmlns:xsi="http://www.w3.org/2001/XMLSchema-instance" xsi:noNamespaceSchemaLocation="http://sumo.dlr.de/xsd/sumoConfiguration.xsd">

    <input>
        <net-file value="F:\sumo_pro/traci_main\guangshen\guangshen\guangshen_ALL.net.xml"/>
        <route-files value="F:\sumo_pro/traci_main\guangshen\guangshen\guangshen_ALL.rou.xml"/>
    </input>

    <output>
        <tripinfo-output value="F:\sumo_pro\traci_main\guangshen\guangshen/tripinfo2_TEST.xml"/>
    </output>

    <time>
        <begin value="0"/>
        <end value="20000"/>
    </time>

    <report>
        <verbose value="true"/>
        <duration-log.statistics value="true"/>
    </report>

    <traci_server>
        <remote-port value="51539"/>
    </traci_server>

    <gui_only>
        <gui-settings-file value="F:\sumo_pro/traci_main\guangshen\guangshen\gui-settings2.cfg"/>
        <quit-on-end value="false"/>
        <start value="true"/>
    </gui_only>

</configuration>
-->

<tripinfos xmlns:xsi="http://www.w3.org/2001/XMLSchema-instance" xsi:noNamespaceSchemaLocation="http://sumo.dlr.de/xsd/tripinfo_file.xsd">
    <tripinfo id="xiaokeche4.0" depart="0.00" departLane="mainlane01_1" departPos="4.10" departSpeed="0.00" departDelay="0.00" arrival="886.00" arrivalLane="mainlane_16_0" arrivalPos="997.88" arrivalSpeed="13.72" duration="886.00" routeLength="12050.57" waitingTime="0.00" waitingCount="0" stopTime="0.00" timeLoss="43.67" rerouteNo="1" devices="tripinfo_xiaokeche4.0 routing_xiaokeche4.0" vType="xiaokeche" speedFactor="1.03" vaporized=""/>
    <tripinfo id="xiaokeche4.3" depart="11.00" departLane="mainlane01_3" departPos="4.10" departSpeed="0.00" departDelay="0.20" arrival="888.00" arrivalLane="mainlane_16_0" arrivalPos="997.88" arrivalSpeed="13.91" duration="877.00" routeLength="12050.57" waitingTime="0.00" waitingCount="0" stopTime="0.00" timeLoss="42.96" rerouteNo="1" devices="tripinfo_xiaokeche4.3 routing_xiaokeche4.3" vType="xiaokeche" speedFactor="1.04" vaporized=""/>
    <tripinfo id="xiaokeche4.13" depart="47.00" departLane="mainlane01_4" departPos="4.10" departSpeed="0.00" departDelay="0.20" arrival="907.00" arrivalLane="mainlane_16_0" arrivalPos="997.88" arrivalSpeed="13.83" duration="860.00" routeLength="12050.57" waitingTime="0.00" waitingCount="0" stopTime="0.00" timeLoss="41.80" rerouteNo="1" devices="tripinfo_xiaokeche4.13 routing_xiaokeche4.13" vType="xiaokeche" speedFactor="1.06" vaporized=""/>
    <tripinfo id="xiaokeche4.4" depart="15.00" departLane="mainlane01_2" departPos="4.10" departSpeed="0.00" departDelay="0.60" arrival="925.00" arrivalLane="mainlane_16_0" arrivalPos="997.88" arrivalSpeed="13.16" duration="910.00" routeLength="12050.57" waitingTime="0.00" waitingCount="0" stopTime="0.00" timeLoss="54.68" rerouteNo="1" devices="tripinfo_xiaokeche4.4 routing_xiaokeche4.4" vType="xiaokeche" speedFactor="1.02" vaporized=""/>
    <tripinfo id="xiaokeche4.2" depart="8.00" departLane="mainlane01_3" departPos="4.10" departSpeed="0.00" departDelay="0.80" arrival="946.00" arrivalLane="mainlane_16_1" arrivalPos="997.88" arrivalSpeed="13.41" duration="938.00" routeLength="12050.57" waitingTime="0.00" waitingCount="0" stopTime="0.00" timeLoss="74.89" rerouteNo="1" devices="tripinfo_xiaokeche4.2 routing_xiaokeche4.2" vType="xiaokeche" speedFactor="1.01" vaporized=""/>
    <tripinfo id="xiaokeche4.1" depart="4.00" departLane="mainlane01_3" departPos="4.10" departSpeed="0.00" departDelay="0.40" arrival="948.00" arrivalLane="mainlane_16_0" arrivalPos="997.88" arrivalSpeed="12.51" duration="944.00" routeLength="12050.57" waitingTime="0.00" waitingCount="0" stopTime="0.00" timeLoss="48.28" rerouteNo="1" devices="tripinfo_xiaokeche4.1 routing_xiaokeche4.1" vType="xiaokeche" speedFactor="0.97" vaporized=""/>
    <tripinfo id="xiaokeche4.6" depart="22.00" departLane="mainlane01_3" departPos="4.10" departSpeed="0.00" departDelay="0.40" arrival="948.00" arrivalLane="mainlane_16_1" arrivalPos="997.88" arrivalSpeed="13.56" duration="926.00" routeLength="12050.57" waitingTime="0.00" waitingCount="0" stopTime="0.00" timeLoss="77.49" rerouteNo="1" devices="tripinfo_xiaokeche4.6 routing_xiaokeche4.6" vType="xiaokeche" speedFactor="1.02" vaporized=""/>
    <tripinfo id="xiaokeche4.12" depart="44.00" departLane="mainlane01_2" departPos="4.10" departSpeed="0.00" departDelay="0.80" arrival="951.00" arrivalLane="mainlane_16_0" arrivalPos="997.88" arrivalSpeed="13.49" duration="907.00" routeLength="12050.57" waitingTime="0.00" waitingCount="0" stopTime="0.00" timeLoss="58.72" rerouteNo="1" devices="tripinfo_xiaokeche4.12 routing_xiaokeche4.12" vType="xiaokeche" speedFactor="1.02" vaporized=""/>
    <tripinfo id="xiaokeche4.11" depart="40.00" departLane="mainlane01_3" departPos="4.10" departSpeed="0.00" departDelay="0.40" arrival="966.00" arrivalLane="mainlane_16_0" arrivalPos="997.88" arrivalSpeed="13.06" duration="926.00" routeLength="12050.57" waitingTime="0.00" waitingCount="0" stopTime="0.00" timeLoss="69.08" rerouteNo="1" devices="tripinfo_xiaokeche4.11 routing_xiaokeche4.11" vType="xiaokeche" speedFactor="1.01" vaporized=""/>
    <tripinfo id="xiaokeche4.8" depart="29.00" departLane="mainlane01_3" departPos="4.10" departSpeed="0.00" departDelay="0.20" arrival="986.00" arrivalLane="mainlane_16_0" arrivalPos="997.88" arrivalSpeed="13.14" duration="957.00" routeLength="12050.57" waitingTime="0.00" waitingCount="0" stopTime="0.00" timeLoss="61.41" rerouteNo="1" devices="tripinfo_xiaokeche4.8 routing_xiaokeche4.8" vType="xiaokeche" speedFactor="0.97" vaporized=""/>
    <tripinfo id="xiaokeche4.14" depart="51.00" departLane="mainlane01_3" departPos="4.10" departSpeed="0.00" departDelay="0.60" arrival="986.00" arrivalLane="mainlane_16_1" arrivalPos="997.88" arrivalSpeed="12.63" duration="935.00" routeLength="12050.57" waitingTime="0.00" waitingCount="0" stopTime="0.00" timeLoss="62.71" rerouteNo="1" devices="tripinfo_xiaokeche4.14 routing_xiaokeche4.14" vType="xiaokeche" speedFactor="1.00" vaporized=""/>
    <tripinfo id="xiaokeche4.7" depart="26.00" departLane="mainlane01_1" departPos="4.10" departSpeed="0.00" departDelay="0.80" arrival="1019.00" arrivalLane="mainlane_16_1" arrivalPos="997.88" arrivalSpeed="11.85" duration="993.00" routeLength="12050.57" waitingTime="0.00" waitingCount="0" stopTime="0.00" timeLoss="72.30" rerouteNo="1" devices="tripinfo_xiaokeche4.7 routing_xiaokeche4.7" vType="xiaokeche" speedFactor="0.94" vaporized=""/>
    <tripinfo id="xiaokeche4.5" depart="18.00" departLane="mainlane01_4" departPos="4.10" departSpeed="0.00" departDelay="0.00" arrival="1020.00" arrivalLane="mainlane_16_0" arrivalPos="997.88" arrivalSpeed="11.96" duration="1002.00" routeLength="12050.57" waitingTime="0.00" waitingCount="0" stopTime="0.00" timeLoss="53.46" rerouteNo="1" devices="tripinfo_xiaokeche4.5 routing_xiaokeche4.5" vType="xiaokeche" speedFactor="0.92" vaporized=""/>
    <tripinfo id="xiaokeche4.10" depart="36.00" departLane="mainlane01_1" departPos="4.10" departSpeed="0.00" departDelay="0.00" arrival="1020.00" arrivalLane="mainlane_16_1" arrivalPos="997.88" arrivalSpeed="14.06" duration="984.00" routeLength="12050.57" waitingTime="0.00" waitingCount="0" stopTime="0.00" timeLoss="153.85" rerouteNo="1" devices="tripinfo_xiaokeche4.10 routing_xiaokeche4.10" vType="xiaokeche" speedFactor="1.05" vaporized=""/>
    <tripinfo id="xiaokeche4.19" depart="69.00" departLane="mainlane01_2" departPos="4.10" departSpeed="0.00" departDelay="0.60" arrival="1021.00" arrivalLane="mainlane_16_0" arrivalPos="997.88" arrivalSpeed="14.95" duration="952.00" routeLength="12050.57" waitingTime="0.00" waitingCount="0" stopTime="0.00" timeLoss="147.61" rerouteNo="1" devices="tripinfo_xiaokeche4.19 routing_xiaokeche4.19" vType="xiaokeche" speedFactor="1.08" vaporized=""/>
    <tripinfo id="xiaokeche4.9" depart="33.00" departLane="mainlane01_3" departPos="4.10" departSpeed="0.00" departDelay="0.60" arrival="1024.00" arrivalLane="mainlane_16_0" arrivalPos="997.88" arrivalSpeed="11.78" duration="991.00" routeLength="12050.57" waitingTime="0.00" waitingCount="0" stopTime="0.00" timeLoss="55.96" rerouteNo="1" devices="tripinfo_xiaokeche4.9 routing_xiaokeche4.9" vType="xiaokeche" speedFactor="0.93" vaporized=""/>
    <tripinfo id="xiaokeche4.15" depart="54.00" departLane="mainlane01_4" departPos="4.10" departSpeed="0.00" departDelay="0.00" arrival="1025.00" arrivalLane="mainlane_16_0" arrivalPos="997.88" arrivalSpeed="13.02" duration="971.00" routeLength="12050.57" waitingTime="0.00" waitingCount="0" stopTime="0.00" timeLoss="70.46" rerouteNo="1" devices="tripinfo_xiaokeche4.15 routing_xiaokeche4.15" vType="xiaokeche" speedFactor="0.96" vaporized=""/>
    <tripinfo id="xiaokeche4.18" depart="65.00" departLane="mainlane01_1" departPos="4.10" departSpeed="0.00" departDelay="0.20" arrival="1027.00" arrivalLane="mainlane_16_0" arrivalPos="997.88" arrivalSpeed="12.59" duration="962.00" routeLength="12050.57" waitingTime="0.00" waitingCount="0" stopTime="0.00" timeLoss="65.59" rerouteNo="1" devices="tripinfo_xiaokeche4.18 routing_xiaokeche4.18" vType="xiaokeche" speedFactor="0.97" vaporized=""/>
    <tripinfo id="xiaokeche4.16" depart="58.00" departLane="mainlane01_4" departPos="4.10" departSpeed="0.00" departDelay="0.40" arrival="1031.00" arrivalLane="mainlane_16_0" arrivalPos="997.88" arrivalSpeed="12.86" duration="973.00" routeLength="12050.57" waitingTime="0.00" waitingCount="0" stopTime="0.00" timeLoss="49.23" rerouteNo="1" devices="tripinfo_xiaokeche4.16 routing_xiaokeche4.16" vType="xiaokeche" speedFactor="0.94" vaporized=""/>
    <tripinfo id="xiaokeche4.17" depart="62.00" departLane="mainlane01_0" departPos="4.10" departSpeed="0.00" departDelay="0.80" arrival="1031.00" arrivalLane="mainlane_16_1" arrivalPos="997.88" arrivalSpeed="12.77" duration="969.00" routeLength="12050.57" waitingTime="0.00" waitingCount="0" stopTime="0.00" timeLoss="74.43" rerouteNo="1" devices="tripinfo_xiaokeche4.17 routing_xiaokeche4.17" vType="xiaokeche" speedFactor="0.97" vaporized=""/>
    <tripinfo id="xiaokeche4.20" depart="72.00" departLane="mainlane01_4" departPos="4.10" departSpeed="0.00" departDelay="0.00" arrival="1032.00" arrivalLane="mainlane_16_1" arrivalPos="997.88" arrivalSpeed="13.42" duration="960.00" routeLength="12050.57" waitingTime="0.00" waitingCount="0" stopTime="0.00" timeLoss="99.96" rerouteNo="1" devices="tripinfo_xiaokeche4.20 routing_xiaokeche4.20" vType="xiaokeche" speedFactor="1.01" vaporized=""/>
    <tripinfo id="xiaokeche4.21" depart="76.00" departLane="mainlane01_1" departPos="4.10" departSpeed="0.00" departDelay="0.40" arrival="1033.00" arrivalLane="mainlane_16_0" arrivalPos="997.88" arrivalSpeed="12.75" duration="957.00" routeLength="12050.57" waitingTime="0.00" waitingCount="0" stopTime="0.00" timeLoss="93.36" rerouteNo="1" devices="tripinfo_xiaokeche4.21 routing_xiaokeche4.21" vType="xiaokeche" speedFactor="1.01" vaporized=""/>
    <tripinfo id="xiaokeche4.28" depart="101.00" departLane="mainlane01_1" departPos="4.10" departSpeed="0.00" departDelay="0.20" arrival="1034.00" arrivalLane="mainlane_16_1" arrivalPos="997.88" arrivalSpeed="14.19" duration="933.00" routeLength="12050.57" waitingTime="0.00" waitingCount="0" stopTime="0.00" timeLoss="118.43" rerouteNo="1" devices="tripinfo_xiaokeche4.28 routing_xiaokeche4.28" vType="xiaokeche" speedFactor="1.07" vaporized=""/>
    <tripinfo id="xiaokeche4.22" depart="80.00" departLane="mainlane01_2" departPos="4.10" departSpeed="0.00" departDelay="0.80" arrival="1035.00" arrivalLane="mainlane_16_0" arrivalPos="997.88" arrivalSpeed="13.09" duration="955.00" routeLength="12050.57" waitingTime="0.00" waitingCount="0" stopTime="0.00" timeLoss="75.62" rerouteNo="1" devices="tripinfo_xiaokeche4.22 routing_xiaokeche4.22" vType="xiaokeche" speedFactor="0.99" vaporized=""/>
    <tripinfo id="xiaokeche4.30" depart="108.00" departLane="mainlane01_3" departPos="4.10" departSpeed="0.00" departDelay="0.00" arrival="1036.00" arrivalLane="mainlane_16_0" arrivalPos="997.88" arrivalSpeed="14.59" duration="928.00" routeLength="12050.57" waitingTime="0.00" waitingCount="0" stopTime="0.00" timeLoss="131.20" rerouteNo="1" devices="tripinfo_xiaokeche4.30 routing_xiaokeche4.30" vType="xiaokeche" speedFactor="1.09" vaporized=""/>
    <tripinfo id="xiaokeche4.32" depart="116.00" departLane="mainlane01_1" departPos="4.10" departSpeed="0.00" departDelay="0.80" arrival="1051.00" arrivalLane="mainlane_16_0" arrivalPos="997.88" arrivalSpeed="13.81" duration="935.00" routeLength="12050.57" waitingTime="0.00" waitingCount="0" stopTime="0.00" timeLoss="69.27" rerouteNo="1" devices="tripinfo_xiaokeche4.32 routing_xiaokeche4.32" vType="xiaokeche" speedFactor="1.00" vaporized=""/>
    <tripinfo id="xiaokeche4.23" depart="83.00" departLane="mainlane01_0" departPos="4.10" departSpeed="0.00" departDelay="0.20" arrival="1054.00" arrivalLane="mainlane_16_1" arrivalPos="997.88" arrivalSpeed="12.40" duration="971.00" routeLength="12050.57" waitingTime="0.00" waitingCount="0" stopTime="0.00" timeLoss="52.49" rerouteNo="1" devices="tripinfo_xiaokeche4.23 routing_xiaokeche4.23" vType="xiaokeche" speedFactor="0.94" vaporized=""/>
    <tripinfo id="xiaokeche4.34" depart="123.00" departLane="mainlane01_2" departPos="4.10" departSpeed="0.00" departDelay="0.60" arrival="1054.00" arrivalLane="mainlane_16_0" arrivalPos="997.88" arrivalSpeed="12.90" duration="931.00" routeLength="12050.57" waitingTime="0.00" waitingCount="0" stopTime="0.00" timeLoss="60.65" rerouteNo="1" devices="tripinfo_xiaokeche4.34 routing_xiaokeche4.34" vType="xiaokeche" speedFactor="1.00" vaporized=""/>
    <tripinfo id="xiaokeche4.26" depart="94.00" departLane="mainlane01_4" departPos="4.10" departSpeed="0.00" departDelay="0.40" arrival="1068.00" arrivalLane="mainlane_16_0" arrivalPos="997.88" arrivalSpeed="12.62" duration="974.00" routeLength="12050.57" waitingTime="0.00" waitingCount="0" stopTime="0.00" timeLoss="68.62" rerouteNo="1" devices="tripinfo_xiaokeche4.26 routing_xiaokeche4.26" vType="xiaokeche" speedFactor="0.96" vaporized=""/>
    <tripinfo id="xiaokeche4.25" depart="90.00" departLane="mainlane01_3" departPos="4.10" departSpeed="0.00" departDelay="0.00" arrival="1078.00" arrivalLane="mainlane_16_0" arrivalPos="997.88" arrivalSpeed="12.18" duration="988.00" routeLength="12050.57" waitingTime="0.00" waitingCount="0" stopTime="0.00" timeLoss="61.26" rerouteNo="1" devices="tripinfo_xiaokeche4.25 routing_xiaokeche4.25" vType="xiaokeche" speedFactor="0.94" vaporized=""/>
    <tripinfo id="xiaokeche4.31" depart="112.00" departLane="mainlane01_4" departPos="4.10" departSpeed="0.00" departDelay="0.40" arrival="1089.00" arrivalLane="mainlane_16_1" arrivalPos="997.88" arrivalSpeed="14.58" duration="977.00" routeLength="12050.57" waitingTime="0.00" waitingCount="0" stopTime="0.00" timeLoss="170.79" rerouteNo="1" devices="tripinfo_xiaokeche4.31 routing_xiaokeche4.31" vType="xiaokeche" speedFactor="1.08" vaporized=""/>
    <tripinfo id="xiaokeche4.27" depart="98.00" departLane="mainlane01_0" departPos="4.10" departSpeed="0.00" departDelay="0.80" arrival="1090.00" arrivalLane="mainlane_16_0" arrivalPos="997.88" arrivalSpeed="13.51" duration="992.00" routeLength="12050.57" waitingTime="0.00" waitingCount="0" stopTime="0.00" timeLoss="100.70" rerouteNo="1" devices="tripinfo_xiaokeche4.27 routing_xiaokeche4.27" vType="xiaokeche" speedFactor="0.97" vaporized=""/>
    <tripinfo id="xiaokeche4.33" depart="119.00" departLane="mainlane01_0" departPos="4.10" departSpeed="0.00" departDelay="0.20" arrival="1090.00" arrivalLane="mainlane_16_1" arrivalPos="997.88" arrivalSpeed="14.14" duration="971.00" routeLength="12050.57" waitingTime="0.00" waitingCount="0" stopTime="0.00" timeLoss="172.03" rerouteNo="1" devices="tripinfo_xiaokeche4.33 routing_xiaokeche4.33" vType="xiaokeche" speedFactor="1.09" vaporized=""/>
    <tripinfo id="xiaokeche4.37" depart="134.00" departLane="mainlane01_2" departPos="4.10" departSpeed="0.00" departDelay="0.80" arrival="1092.00" arrivalLane="mainlane_16_1" arrivalPos="997.88" arrivalSpeed="14.33" duration="958.00" routeLength="12050.57" waitingTime="0.00" waitingCount="0" stopTime="0.00" timeLoss="161.65" rerouteNo="1" devices="tripinfo_xiaokeche4.37 routing_xiaokeche4.37" vType="xiaokeche" speedFactor="1.09" vaporized=""/>
    <tripinfo id="xiaokeche4.24" depart="87.00" departLane="mainlane01_3" departPos="4.10" departSpeed="0.00" departDelay="0.60" arrival="1093.00" arrivalLane="mainlane_16_0" arrivalPos="997.88" arrivalSpeed="11.60" duration="1006.00" routeLength="12050.57" waitingTime="0.00" waitingCount="0" stopTime="0.00" timeLoss="55.03" rerouteNo="1" devices="tripinfo_xiaokeche4.24 routing_xiaokeche4.24" vType="xiaokeche" speedFactor="0.91" vaporized=""/>
    <tripinfo id="xiaokeche4.29" depart="105.00" departLane="mainlane01_3" departPos="4.10" departSpeed="0.00" departDelay="0.60" arrival="1095.00" arrivalLane="mainlane_16_0" arrivalPos="997.88" arrivalSpeed="12.36" duration="990.00" routeLength="12050.57" waitingTime="0.00" waitingCount="0" stopTime="0.00" timeLoss="90.67" rerouteNo="1" devices="tripinfo_xiaokeche4.29 routing_xiaokeche4.29" vType="xiaokeche" speedFactor="0.97" vaporized=""/>
    <tripinfo id="xiaokeche4.35" depart="126.00" departLane="mainlane01_1" departPos="4.10" departSpeed="0.00" departDelay="0.00" arrival="1096.00" arrivalLane="mainlane_16_0" arrivalPos="997.88" arrivalSpeed="13.13" duration="970.00" routeLength="12050.57" waitingTime="0.00" waitingCount="0" stopTime="0.00" timeLoss="110.55" rerouteNo="1" devices="tripinfo_xiaokeche4.35 routing_xiaokeche4.35" vType="xiaokeche" speedFactor="1.01" vaporized=""/>
    <tripinfo id="xiaokeche4.38" depart="137.00" departLane="mainlane01_3" departPos="4.10" departSpeed="0.00" departDelay="0.20" arrival="1098.00" arrivalLane="mainlane_16_0" arrivalPos="997.88" arrivalSpeed="13.45" duration="961.00" routeLength="12050.57" waitingTime="0.00" waitingCount="0" stopTime="0.00" timeLoss="134.96" rerouteNo="1" devices="tripinfo_xiaokeche4.38 routing_xiaokeche4.38" vType="xiaokeche" speedFactor="1.05" vaporized=""/>
    <tripinfo id="xiaokeche4.36" depart="130.00" departLane="mainlane01_3" departPos="4.10" departSpeed="0.00" departDelay="0.40" arrival="1100.00" arrivalLane="mainlane_16_0" arrivalPos="997.88" arrivalSpeed="12.53" duration="970.00" routeLength="12050.57" waitingTime="0.00" waitingCount="0" stopTime="0.00" timeLoss="89.78" rerouteNo="1" devices="tripinfo_xiaokeche4.36 routing_xiaokeche4.36" vType="xiaokeche" speedFactor="0.99" vaporized=""/>
    <tripinfo id="xiaokeche4.40" depart="144.00" departLane="mainlane01_4" departPos="4.10" departSpeed="0.00" departDelay="0.00" arrival="1101.00" arrivalLane="mainlane_16_0" arrivalPos="997.88" arrivalSpeed="13.25" duration="957.00" routeLength="12050.57" waitingTime="0.00" waitingCount="0" stopTime="0.00" timeLoss="102.13" rerouteNo="1" devices="tripinfo_xiaokeche4.40 routing_xiaokeche4.40" vType="xiaokeche" speedFactor="1.02" vaporized=""/>
    <tripinfo id="xiaokeche4.42" depart="152.00" departLane="mainlane01_1" departPos="4.10" departSpeed="0.00" departDelay="0.80" arrival="1103.00" arrivalLane="mainlane_16_0" arrivalPos="997.88" arrivalSpeed="13.74" duration="951.00" routeLength="12050.57" waitingTime="0.00" waitingCount="0" stopTime="0.00" timeLoss="120.94" rerouteNo="1" devices="tripinfo_xiaokeche4.42 routing_xiaokeche4.42" vType="xiaokeche" speedFactor="1.05" vaporized=""/>
    <tripinfo id="xiaokeche4.43" depart="155.00" departLane="mainlane01_4" departPos="4.10" departSpeed="0.00" departDelay="0.20" arrival="1106.00" arrivalLane="mainlane_16_1" arrivalPos="997.88" arrivalSpeed="12.97" duration="951.00" routeLength="12050.57" waitingTime="0.00" waitingCount="0" stopTime="0.00" timeLoss="99.26" rerouteNo="1" devices="tripinfo_xiaokeche4.43 routing_xiaokeche4.43" vType="xiaokeche" speedFactor="1.02" vaporized=""/>
    <tripinfo id="xiaokeche4.39" depart="141.00" departLane="mainlane01_3" departPos="4.10" departSpeed="0.00" departDelay="0.60" arrival="1107.00" arrivalLane="mainlane_16_0" arrivalPos="997.88" arrivalSpeed="12.31" duration="966.00" routeLength="12050.57" waitingTime="0.00" waitingCount="0" stopTime="0.00" timeLoss="52.13" rerouteNo="1" devices="tripinfo_xiaokeche4.39 routing_xiaokeche4.39" vType="xiaokeche" speedFactor="0.95" vaporized=""/>
    <tripinfo id="xiaokeche4.41" depart="148.00" departLane="mainlane01_1" departPos="4.10" departSpeed="0.00" departDelay="0.40" arrival="1108.00" arrivalLane="mainlane_16_0" arrivalPos="997.88" arrivalSpeed="13.30" duration="960.00" routeLength="12050.57" waitingTime="0.00" waitingCount="0" stopTime="0.00" timeLoss="73.12" rerouteNo="1" devices="tripinfo_xiaokeche4.41 routing_xiaokeche4.41" vType="xiaokeche" speedFactor="0.98" vaporized=""/>
    <tripinfo id="xiaokeche4.45" depart="162.00" departLane="mainlane01_0" departPos="4.10" departSpeed="0.00" departDelay="0.00" arrival="1108.00" arrivalLane="mainlane_16_1" arrivalPos="997.88" arrivalSpeed="14.38" duration="946.00" routeLength="12050.57" waitingTime="0.00" waitingCount="0" stopTime="0.00" timeLoss="114.53" rerouteNo="1" devices="tripinfo_xiaokeche4.45 routing_xiaokeche4.45" vType="xiaokeche" speedFactor="1.04" vaporized=""/>
    <tripinfo id="xiaokeche4.44" depart="159.00" departLane="mainlane01_0" departPos="4.10" departSpeed="0.00" departDelay="0.60" arrival="1110.00" arrivalLane="mainlane_16_0" arrivalPos="997.88" arrivalSpeed="13.39" duration="951.00" routeLength="12050.57" waitingTime="0.00" waitingCount="0" stopTime="0.00" timeLoss="101.12" rerouteNo="1" devices="tripinfo_xiaokeche4.44 routing_xiaokeche4.44" vType="xiaokeche" speedFactor="1.02" vaporized=""/>
    <tripinfo id="xiaokeche4.51" depart="184.00" departLane="mainlane01_4" departPos="4.10" departSpeed="0.00" departDelay="0.40" arrival="1110.00" arrivalLane="mainlane_16_1" arrivalPos="997.88" arrivalSpeed="14.73" duration="926.00" routeLength="12050.57" waitingTime="0.00" waitingCount="0" stopTime="0.00" timeLoss="125.16" rerouteNo="1" devices="tripinfo_xiaokeche4.51 routing_xiaokeche4.51" vType="xiaokeche" speedFactor="1.08" vaporized=""/>
    <tripinfo id="xiaokeche4.46" depart="166.00" departLane="mainlane01_2" departPos="4.10" departSpeed="0.00" departDelay="0.40" arrival="1113.00" arrivalLane="mainlane_16_0" arrivalPos="997.88" arrivalSpeed="13.83" duration="947.00" routeLength="12050.57" waitingTime="0.00" waitingCount="0" stopTime="0.00" timeLoss="77.63" rerouteNo="1" devices="tripinfo_xiaokeche4.46 routing_xiaokeche4.46" vType="xiaokeche" speedFactor="1.00" vaporized=""/>
    <tripinfo id="xiaokeche4.47" depart="170.00" departLane="mainlane01_3" departPos="4.10" departSpeed="0.00" departDelay="0.80" arrival="1132.00" arrivalLane="mainlane_16_0" arrivalPos="997.88" arrivalSpeed="12.51" duration="962.00" routeLength="12050.57" waitingTime="0.00" waitingCount="0" stopTime="0.00" timeLoss="48.47" rerouteNo="1" devices="tripinfo_xiaokeche4.47 routing_xiaokeche4.47" vType="xiaokeche" speedFactor="0.95" vaporized=""/>
    <tripinfo id="xiaokeche4.53" depart="191.00" departLane="mainlane01_3" departPos="4.10" departSpeed="0.00" departDelay="0.20" arrival="1142.00" arrivalLane="mainlane_16_0" arrivalPos="997.88" arrivalSpeed="14.34" duration="951.00" routeLength="12050.57" waitingTime="0.00" waitingCount="0" stopTime="0.00" timeLoss="122.60" rerouteNo="1" devices="tripinfo_xiaokeche4.53 routing_xiaokeche4.53" vType="xiaokeche" speedFactor="1.05" vaporized=""/>
    <tripinfo id="xiaokeche4.54" depart="195.00" departLane="mainlane01_1" departPos="4.10" departSpeed="0.00" departDelay="0.60" arrival="1147.00" arrivalLane="mainlane_16_0" arrivalPos="997.88" arrivalSpeed="13.13" duration="952.00" routeLength="12050.57" waitingTime="0.00" waitingCount="0" stopTime="0.00" timeLoss="85.50" rerouteNo="1" devices="tripinfo_xiaokeche4.54 routing_xiaokeche4.54" vType="xiaokeche" speedFactor="1.00" vaporized=""/>
    <tripinfo id="xiaokeche4.48" depart="173.00" departLane="mainlane01_2" departPos="4.10" departSpeed="0.00" departDelay="0.20" arrival="1149.00" arrivalLane="mainlane_16_0" arrivalPos="997.88" arrivalSpeed="12.25" duration="976.00" routeLength="12050.57" waitingTime="0.00" waitingCount="0" stopTime="0.00" timeLoss="51.44" rerouteNo="1" devices="tripinfo_xiaokeche4.48 routing_xiaokeche4.48" vType="xiaokeche" speedFactor="0.94" vaporized=""/>
    <tripinfo id="xiaokeche4.55" depart="198.00" departLane="mainlane01_4" departPos="4.10" departSpeed="0.00" departDelay="0.00" arrival="1151.00" arrivalLane="mainlane_16_0" arrivalPos="997.88" arrivalSpeed="13.76" duration="953.00" routeLength="12050.57" waitingTime="0.00" waitingCount="0" stopTime="0.00" timeLoss="83.20" rerouteNo="1" devices="tripinfo_xiaokeche4.55 routing_xiaokeche4.55" vType="xiaokeche" speedFactor="1.00" vaporized=""/>
    <tripinfo id="xiaokeche4.52" depart="188.00" departLane="mainlane01_2" departPos="4.10" departSpeed="0.00" departDelay="0.80" arrival="1166.00" arrivalLane="mainlane_16_0" arrivalPos="997.88" arrivalSpeed="12.72" duration="978.00" routeLength="12050.57" waitingTime="0.00" waitingCount="0" stopTime="0.00" timeLoss="116.90" rerouteNo="1" devices="tripinfo_xiaokeche4.52 routing_xiaokeche4.52" vType="xiaokeche" speedFactor="1.01" vaporized=""/>
    <tripinfo id="xiaokeche4.57" depart="206.00" departLane="mainlane01_2" departPos="4.10" departSpeed="0.00" departDelay="0.80" arrival="1167.00" arrivalLane="mainlane_16_1" arrivalPos="997.88" arrivalSpeed="13.63" duration="961.00" routeLength="12050.57" waitingTime="0.00" waitingCount="0" stopTime="0.00" timeLoss="150.54" rerouteNo="1" devices="tripinfo_xiaokeche4.57 routing_xiaokeche4.57" vType="xiaokeche" speedFactor="1.07" vaporized=""/>
    <tripinfo id="xiaokeche4.49" depart="177.00" departLane="mainlane01_3" departPos="4.10" departSpeed="0.00" departDelay="0.60" arrival="1168.00" arrivalLane="mainlane_16_0" arrivalPos="997.88" arrivalSpeed="12.84" duration="991.00" routeLength="12050.57" waitingTime="0.00" waitingCount="0" stopTime="0.00" timeLoss="52.62" rerouteNo="1" devices="tripinfo_xiaokeche4.49 routing_xiaokeche4.49" vType="xiaokeche" speedFactor="0.93" vaporized=""/>
    <tripinfo id="xiaokeche4.58" depart="209.00" departLane="mainlane01_0" departPos="4.10" departSpeed="0.00" departDelay="0.20" arrival="1169.00" arrivalLane="mainlane_16_1" arrivalPos="997.88" arrivalSpeed="13.06" duration="960.00" routeLength="12050.57" waitingTime="0.00" waitingCount="0" stopTime="0.00" timeLoss="102.47" rerouteNo="1" devices="tripinfo_xiaokeche4.58 routing_xiaokeche4.58" vType="xiaokeche" speedFactor="1.01" vaporized=""/>
    <tripinfo id="xiaokeche4.50" depart="180.00" departLane="mainlane01_2" departPos="4.10" departSpeed="0.00" departDelay="0.00" arrival="1170.00" arrivalLane="mainlane_16_0" arrivalPos="997.88" arrivalSpeed="11.61" duration="990.00" routeLength="12050.57" waitingTime="0.00" waitingCount="0" stopTime="0.00" timeLoss="54.47" rerouteNo="1" devices="tripinfo_xiaokeche4.50 routing_xiaokeche4.50" vType="xiaokeche" speedFactor="0.93" vaporized=""/>
    <tripinfo id="xiaokeche4.60" depart="216.00" departLane="mainlane01_4" departPos="4.10" departSpeed="0.00" departDelay="0.00" arrival="1171.00" arrivalLane="mainlane_16_1" arrivalPos="997.88" arrivalSpeed="13.21" duration="955.00" routeLength="12050.57" waitingTime="0.00" waitingCount="0" stopTime="0.00" timeLoss="121.41" rerouteNo="1" devices="tripinfo_xiaokeche4.60 routing_xiaokeche4.60" vType="xiaokeche" speedFactor="1.04" vaporized=""/>
    <tripinfo id="xiaokeche4.61" depart="220.00" departLane="mainlane01_2" departPos="4.10" departSpeed="0.00" departDelay="0.40" arrival="1173.00" arrivalLane="mainlane_16_1" arrivalPos="997.88" arrivalSpeed="13.69" duration="953.00" routeLength="12050.57" waitingTime="0.00" waitingCount="0" stopTime="0.00" timeLoss="133.74" rerouteNo="1" devices="tripinfo_xiaokeche4.61 routing_xiaokeche4.61" vType="xiaokeche" speedFactor="1.06" vaporized=""/>
    <tripinfo id="xiaokeche4.56" depart="202.00" departLane="mainlane01_0" departPos="4.10" departSpeed="0.00" departDelay="0.40" arrival="1174.00" arrivalLane="mainlane_16_0" arrivalPos="997.88" arrivalSpeed="12.27" duration="972.00" routeLength="12050.57" waitingTime="0.00" waitingCount="0" stopTime="0.00" timeLoss="57.75" rerouteNo="1" devices="tripinfo_xiaokeche4.56 routing_xiaokeche4.56" vType="xiaokeche" speedFactor="0.95" vaporized=""/>
    <tripinfo id="xiaokeche4.59" depart="213.00" departLane="mainlane01_4" departPos="4.10" departSpeed="0.00" departDelay="0.60" arrival="1176.00" arrivalLane="mainlane_16_0" arrivalPos="997.88" arrivalSpeed="13.30" duration="963.00" routeLength="12050.57" waitingTime="0.00" waitingCount="0" stopTime="0.00" timeLoss="81.23" rerouteNo="1" devices="tripinfo_xiaokeche4.59 routing_xiaokeche4.59" vType="xiaokeche" speedFactor="0.98" vaporized=""/>
    <tripinfo id="xiaokeche4.62" depart="224.00" departLane="mainlane01_1" departPos="4.10" departSpeed="0.00" departDelay="0.80" arrival="1177.00" arrivalLane="mainlane_16_0" arrivalPos="997.88" arrivalSpeed="12.78" duration="953.00" routeLength="12050.57" waitingTime="0.00" waitingCount="0" stopTime="0.00" timeLoss="92.17" rerouteNo="1" devices="tripinfo_xiaokeche4.62 routing_xiaokeche4.62" vType="xiaokeche" speedFactor="1.01" vaporized=""/>
    <tripinfo id="xiaokeche4.63" depart="227.00" departLane="mainlane01_4" departPos="4.10" departSpeed="0.00" departDelay="0.20" arrival="1180.00" arrivalLane="mainlane_16_0" arrivalPos="997.88" arrivalSpeed="13.67" duration="953.00" routeLength="12050.57" waitingTime="0.00" waitingCount="0" stopTime="0.00" timeLoss="79.34" rerouteNo="1" devices="tripinfo_xiaokeche4.63 routing_xiaokeche4.63" vType="xiaokeche" speedFactor="0.99" vaporized=""/>