<?xml version="1.0" encoding="UTF-8"?>

<!-- generated on 2021-11-08 20:21:41 by Eclipse SUMO GUI Version 1.10.0
<configuration xmlns:xsi="http://www.w3.org/2001/XMLSchema-instance" xsi:noNamespaceSchemaLocation="http://sumo.dlr.de/xsd/sumoConfiguration.xsd">

    <input>
        <net-file value="F:\sumo_pro/traci_main\guangshen\guangshen\guangshen_ALL.net.xml"/>
        <route-files value="F:\sumo_pro/traci_main\guangshen\guangshen\guangshen_ALL.rou.xml"/>
    </input>

    <output>
        <tripinfo-output value="F:\sumo_pro\traci_main\guangshen\guangshen/tripinfo2_TEST.xml"/>
    </output>

    <time>
        <begin value="0"/>
        <end value="20000"/>
    </time>

    <report>
        <verbose value="true"/>
        <duration-log.statistics value="true"/>
    </report>

    <traci_server>
        <remote-port value="60957"/>
    </traci_server>

    <gui_only>
        <gui-settings-file value="F:\sumo_pro/traci_main\guangshen\guangshen\gui-settings2.cfg"/>
        <quit-on-end value="false"/>
        <start value="true"/>
    </gui_only>

</configuration>
-->

<tripinfos xmlns:xsi="http://www.w3.org/2001/XMLSchema-instance" xsi:noNamespaceSchemaLocation="http://sumo.dlr.de/xsd/tripinfo_file.xsd">
    <tripinfo id="xiaokeche_taiping_ru.2" depart="4.00" departLane="TP_ZR1_1" departPos="554.47" departSpeed="0.00" departDelay="0.79" arrival="53.00" arrivalLane="mainlane_16_0" arrivalPos="997.88" arrivalSpeed="32.07" duration="49.00" routeLength="1284.61" waitingTime="0.00" waitingCount="0" stopTime="0.00" timeLoss="6.00" rerouteNo="1" devices="tripinfo_xiaokeche_taiping_ru.2 routing_xiaokeche_taiping_ru.2" vType="xiaokeche" speedFactor="0.99" vaporized=""/>
    <tripinfo id="xiaokeche_taiping_ru.5" depart="9.00" departLane="TP_ZR1_1" departPos="533.52" departSpeed="0.00" departDelay="0.97" arrival="66.00" arrivalLane="mainlane_16_0" arrivalPos="997.88" arrivalSpeed="27.22" duration="57.00" routeLength="1305.56" waitingTime="0.00" waitingCount="0" stopTime="0.00" timeLoss="4.95" rerouteNo="1" devices="tripinfo_xiaokeche_taiping_ru.5 routing_xiaokeche_taiping_ru.5" vType="xiaokeche" speedFactor="0.85" vaporized=""/>
    <tripinfo id="xiaokeche_taiping_ru.7" depart="16.00" departLane="TP_ZR1_1" departPos="503.30" departSpeed="0.00" departDelay="4.76" arrival="68.00" arrivalLane="mainlane_16_1" arrivalPos="997.88" arrivalSpeed="32.70" duration="52.00" routeLength="1335.78" waitingTime="0.00" waitingCount="0" stopTime="0.00" timeLoss="6.10" rerouteNo="1" devices="tripinfo_xiaokeche_taiping_ru.7 routing_xiaokeche_taiping_ru.7" vType="xiaokeche" speedFactor="1.02" vaporized=""/>
    <tripinfo id="xiaokeche_taiping_ru.8" depart="16.00" departLane="TP_ZR1_1" departPos="531.68" departSpeed="0.00" departDelay="3.15" arrival="68.00" arrivalLane="mainlane_16_0" arrivalPos="997.88" arrivalSpeed="32.13" duration="52.00" routeLength="1307.40" waitingTime="0.00" waitingCount="0" stopTime="0.00" timeLoss="6.45" rerouteNo="1" devices="tripinfo_xiaokeche_taiping_ru.8 routing_xiaokeche_taiping_ru.8" vType="xiaokeche" speedFactor="0.99" vaporized=""/>
    <tripinfo id="dakeche_taiping_ru.0" depart="0.00" departLane="TP_ZR1_0" departPos="392.97" departSpeed="0.00" departDelay="0.00" arrival="71.00" arrivalLane="mainlane_16_0" arrivalPos="997.88" arrivalSpeed="27.36" duration="71.00" routeLength="1446.11" waitingTime="0.00" waitingCount="0" stopTime="0.00" timeLoss="10.36" rerouteNo="1" devices="tripinfo_dakeche_taiping_ru.0 routing_dakeche_taiping_ru.0" vType="dakeche" speedFactor="1.00" vaporized=""/>
    <tripinfo id="tedaxinghuoche_taiping_ru.0" depart="0.00" departLane="TP_ZR1_0" departPos="364.15" departSpeed="0.00" departDelay="0.00" arrival="76.00" arrivalLane="mainlane_16_0" arrivalPos="997.88" arrivalSpeed="27.43" duration="76.00" routeLength="1474.93" waitingTime="0.00" waitingCount="0" stopTime="0.00" timeLoss="10.81" rerouteNo="1" devices="tripinfo_tedaxinghuoche_taiping_ru.0 routing_tedaxinghuoche_taiping_ru.0" vType="tedaxinghuoche" speedFactor="0.91" vaporized=""/>
    <tripinfo id="zhongxinghuoche_taiping_ru.0" depart="0.00" departLane="TP_ZR1_0" departPos="294.88" departSpeed="0.00" departDelay="0.00" arrival="78.00" arrivalLane="mainlane_16_0" arrivalPos="997.88" arrivalSpeed="27.77" duration="78.00" routeLength="1544.20" waitingTime="0.00" waitingCount="0" stopTime="0.00" timeLoss="10.11" rerouteNo="1" devices="tripinfo_zhongxinghuoche_taiping_ru.0 routing_zhongxinghuoche_taiping_ru.0" vType="zhongxinghuoche" speedFactor="0.99" vaporized=""/>
    <tripinfo id="xiaokeche_taiping_ru.15" depart="25.00" departLane="TP_ZR1_1" departPos="519.30" departSpeed="0.00" departDelay="0.91" arrival="79.00" arrivalLane="mainlane_16_0" arrivalPos="997.88" arrivalSpeed="32.62" duration="54.00" routeLength="1319.78" waitingTime="0.00" waitingCount="0" stopTime="0.00" timeLoss="9.10" rerouteNo="1" devices="tripinfo_xiaokeche_taiping_ru.15 routing_xiaokeche_taiping_ru.15" vType="xiaokeche" speedFactor="1.07" vaporized=""/>
    <tripinfo id="xiaokeche_taiping_ru.0" depart="0.00" departLane="TP_ZR1_0" departPos="185.08" departSpeed="0.00" departDelay="0.00" arrival="80.00" arrivalLane="mainlane_16_0" arrivalPos="997.88" arrivalSpeed="31.65" duration="80.00" routeLength="1654.00" waitingTime="0.00" waitingCount="0" stopTime="0.00" timeLoss="10.73" rerouteNo="1" devices="tripinfo_xiaokeche_taiping_ru.0 routing_xiaokeche_taiping_ru.0" vType="xiaokeche" speedFactor="1.02" vaporized=""/>
    <tripinfo id="xiaokeche_taiping_ru.11" depart="19.00" departLane="TP_ZR1_1" departPos="409.42" departSpeed="0.00" departDelay="1.33" arrival="80.00" arrivalLane="mainlane_16_1" arrivalPos="997.88" arrivalSpeed="32.84" duration="61.00" routeLength="1429.66" waitingTime="0.00" waitingCount="0" stopTime="0.00" timeLoss="9.58" rerouteNo="1" devices="tripinfo_xiaokeche_taiping_ru.11 routing_xiaokeche_taiping_ru.11" vType="xiaokeche" speedFactor="1.09" vaporized=""/>
    <tripinfo id="xiaokeche_taiping_ru.18" depart="29.00" departLane="TP_ZR1_1" departPos="572.98" departSpeed="0.00" departDelay="0.09" arrival="81.00" arrivalLane="mainlane_16_0" arrivalPos="997.88" arrivalSpeed="31.17" duration="52.00" routeLength="1266.10" waitingTime="0.00" waitingCount="0" stopTime="0.00" timeLoss="10.01" rerouteNo="1" devices="tripinfo_xiaokeche_taiping_ru.18 routing_xiaokeche_taiping_ru.18" vType="xiaokeche" speedFactor="0.99" vaporized=""/>
    <tripinfo id="xiaokeche_taiping_ru.14" depart="23.00" departLane="TP_ZR1_1" departPos="492.39" departSpeed="0.00" departDelay="0.52" arrival="82.00" arrivalLane="mainlane_16_0" arrivalPos="997.88" arrivalSpeed="31.96" duration="59.00" routeLength="1346.69" waitingTime="0.00" waitingCount="0" stopTime="0.00" timeLoss="12.16" rerouteNo="1" devices="tripinfo_xiaokeche_taiping_ru.14 routing_xiaokeche_taiping_ru.14" vType="xiaokeche" speedFactor="1.01" vaporized=""/>
    <tripinfo id="xiaokeche_taiping_ru.1" depart="2.00" departLane="TP_ZR1_1" departPos="136.08" departSpeed="0.00" departDelay="0.39" arrival="83.00" arrivalLane="mainlane_16_0" arrivalPos="997.88" arrivalSpeed="33.20" duration="81.00" routeLength="1703.00" waitingTime="0.00" waitingCount="0" stopTime="0.00" timeLoss="12.67" rerouteNo="1" devices="tripinfo_xiaokeche_taiping_ru.1 routing_xiaokeche_taiping_ru.1" vType="xiaokeche" speedFactor="1.13" vaporized=""/>
    <tripinfo id="xiaokeche_taiping_ru.9" depart="19.00" departLane="TP_ZR1_1" departPos="380.45" departSpeed="0.00" departDelay="4.55" arrival="84.00" arrivalLane="mainlane_16_0" arrivalPos="997.88" arrivalSpeed="32.60" duration="65.00" routeLength="1458.63" waitingTime="0.00" waitingCount="0" stopTime="0.00" timeLoss="9.84" rerouteNo="1" devices="tripinfo_xiaokeche_taiping_ru.9 routing_xiaokeche_taiping_ru.9" vType="xiaokeche" speedFactor="1.02" vaporized=""/>
    <tripinfo id="xiaokeche_taiping_ru.3" depart="5.00" departLane="TP_ZR1_1" departPos="138.76" departSpeed="0.00" departDelay="0.18" arrival="87.00" arrivalLane="mainlane_16_0" arrivalPos="997.88" arrivalSpeed="33.08" duration="82.00" routeLength="1700.32" waitingTime="0.00" waitingCount="0" stopTime="0.00" timeLoss="12.89" rerouteNo="1" devices="tripinfo_xiaokeche_taiping_ru.3 routing_xiaokeche_taiping_ru.3" vType="xiaokeche" speedFactor="1.10" vaporized=""/>
    <tripinfo id="daxinghuoche_taiping_ru.0" depart="0.00" departLane="TP_ZR1_0" departPos="176.52" departSpeed="0.00" departDelay="0.00" arrival="89.00" arrivalLane="mainlane_16_0" arrivalPos="997.88" arrivalSpeed="27.45" duration="89.00" routeLength="1662.56" waitingTime="0.00" waitingCount="0" stopTime="0.00" timeLoss="10.36" rerouteNo="1" devices="tripinfo_daxinghuoche_taiping_ru.0 routing_daxinghuoche_taiping_ru.0" vType="daxinghuoche" speedFactor="0.94" vaporized=""/>
    <tripinfo id="xiaokeche_taiping_ru.20" depart="36.00" departLane="TP_ZR1_1" departPos="527.72" departSpeed="0.00" departDelay="3.88" arrival="90.00" arrivalLane="mainlane_16_0" arrivalPos="997.88" arrivalSpeed="30.01" duration="54.00" routeLength="1311.36" waitingTime="0.00" waitingCount="0" stopTime="0.00" timeLoss="10.30" rerouteNo="1" devices="tripinfo_xiaokeche_taiping_ru.20 routing_xiaokeche_taiping_ru.20" vType="xiaokeche" speedFactor="1.07" vaporized=""/>
    <tripinfo id="xiaokeche_taiping_ru.6" depart="10.00" departLane="TP_ZR1_1" departPos="194.88" departSpeed="0.00" departDelay="0.36" arrival="92.00" arrivalLane="mainlane_16_0" arrivalPos="997.88" arrivalSpeed="31.44" duration="82.00" routeLength="1644.20" waitingTime="0.00" waitingCount="0" stopTime="0.00" timeLoss="13.17" rerouteNo="1" devices="tripinfo_xiaokeche_taiping_ru.6 routing_xiaokeche_taiping_ru.6" vType="xiaokeche" speedFactor="1.00" vaporized=""/>
    <tripinfo id="xiaokeche_taiping_ru.4" depart="8.00" departLane="TP_ZR1_1" departPos="96.80" departSpeed="0.00" departDelay="1.58" arrival="93.00" arrivalLane="mainlane_16_0" arrivalPos="997.88" arrivalSpeed="29.03" duration="85.00" routeLength="1742.28" waitingTime="0.00" waitingCount="0" stopTime="0.00" timeLoss="10.82" rerouteNo="1" devices="tripinfo_xiaokeche_taiping_ru.4 routing_xiaokeche_taiping_ru.4" vType="xiaokeche" speedFactor="1.04" vaporized=""/>
    <tripinfo id="xiaokeche_taiping_ru.22" depart="37.00" departLane="TP_ZR1_1" departPos="430.89" departSpeed="0.00" departDelay="1.67" arrival="93.00" arrivalLane="mainlane_16_0" arrivalPos="997.88" arrivalSpeed="32.53" duration="56.00" routeLength="1408.19" waitingTime="0.00" waitingCount="0" stopTime="0.00" timeLoss="6.02" rerouteNo="1" devices="tripinfo_xiaokeche_taiping_ru.22 routing_xiaokeche_taiping_ru.22" vType="xiaokeche" speedFactor="1.13" vaporized=""/>
    <tripinfo id="daxinghuoche_taiping_ru.1" depart="22.00" departLane="TP_ZR1_0" departPos="338.64" departSpeed="0.00" departDelay="1.89" arrival="96.00" arrivalLane="mainlane_16_0" arrivalPos="997.88" arrivalSpeed="27.53" duration="74.00" routeLength="1500.44" waitingTime="0.00" waitingCount="0" stopTime="0.00" timeLoss="10.01" rerouteNo="1" devices="tripinfo_daxinghuoche_taiping_ru.1 routing_daxinghuoche_taiping_ru.1" vType="daxinghuoche" speedFactor="1.01" vaporized=""/>
    <tripinfo id="xiaoxinghuoche_taiping_ru.0" depart="0.00" departLane="TP_ZR1_0" departPos="26.56" departSpeed="0.00" departDelay="0.00" arrival="99.00" arrivalLane="mainlane_16_0" arrivalPos="997.88" arrivalSpeed="27.75" duration="99.00" routeLength="1812.52" waitingTime="0.00" waitingCount="0" stopTime="0.00" timeLoss="11.80" rerouteNo="1" devices="tripinfo_xiaoxinghuoche_taiping_ru.0 routing_xiaoxinghuoche_taiping_ru.0" vType="xiaoxinghuoche" speedFactor="1.01" vaporized=""/>
    <tripinfo id="xiaokeche_taiping_ru.10" depart="19.00" departLane="TP_ZR1_1" departPos="161.65" departSpeed="0.00" departDelay="2.94" arrival="100.00" arrivalLane="mainlane_16_0" arrivalPos="997.88" arrivalSpeed="28.53" duration="81.00" routeLength="1677.43" waitingTime="0.00" waitingCount="0" stopTime="0.00" timeLoss="11.16" rerouteNo="1" devices="tripinfo_xiaokeche_taiping_ru.10 routing_xiaokeche_taiping_ru.10" vType="xiaokeche" speedFactor="1.03" vaporized=""/>
    <tripinfo id="xiaokeche_taiping_ru.16" depart="26.00" departLane="TP_ZR1_1" departPos="270.34" departSpeed="0.00" departDelay="0.30" arrival="101.00" arrivalLane="mainlane_16_0" arrivalPos="997.88" arrivalSpeed="28.45" duration="75.00" routeLength="1568.74" waitingTime="0.00" waitingCount="0" stopTime="0.00" timeLoss="9.38" rerouteNo="1" devices="tripinfo_xiaokeche_taiping_ru.16 routing_xiaokeche_taiping_ru.16" vType="xiaokeche" speedFactor="0.96" vaporized=""/>
    <tripinfo id="xiaokeche_taiping_ru.28" depart="46.00" departLane="TP_ZR1_1" departPos="457.00" departSpeed="0.00" departDelay="1.03" arrival="103.00" arrivalLane="mainlane_16_0" arrivalPos="997.88" arrivalSpeed="30.07" duration="57.00" routeLength="1382.08" waitingTime="0.00" waitingCount="0" stopTime="0.00" timeLoss="8.14" rerouteNo="1" devices="tripinfo_xiaokeche_taiping_ru.28 routing_xiaokeche_taiping_ru.28" vType="xiaokeche" speedFactor="1.06" vaporized=""/>
    <tripinfo id="xiaokeche_taiping_ru.25" depart="41.00" departLane="TP_ZR1_1" departPos="313.69" departSpeed="0.00" departDelay="0.85" arrival="111.00" arrivalLane="mainlane_16_0" arrivalPos="997.88" arrivalSpeed="32.24" duration="70.00" routeLength="1525.39" waitingTime="0.00" waitingCount="0" stopTime="0.00" timeLoss="13.35" rerouteNo="1" devices="tripinfo_xiaokeche_taiping_ru.25 routing_xiaokeche_taiping_ru.25" vType="xiaokeche" speedFactor="1.13" vaporized=""/>
    <tripinfo id="xiaokeche_taiping_ru.19" depart="31.00" departLane="TP_ZR1_1" departPos="119.28" departSpeed="0.00" departDelay="0.49" arrival="113.00" arrivalLane="mainlane_16_1" arrivalPos="997.88" arrivalSpeed="32.55" duration="82.00" routeLength="1719.80" waitingTime="0.00" waitingCount="0" stopTime="0.00" timeLoss="13.33" rerouteNo="1" devices="tripinfo_xiaokeche_taiping_ru.19 routing_xiaokeche_taiping_ru.19" vType="xiaokeche" speedFactor="1.15" vaporized=""/>
    <tripinfo id="tedaxinghuoche_taiping_ru.1" depart="43.00" departLane="TP_ZR1_0" departPos="437.47" departSpeed="0.00" departDelay="2.55" arrival="113.00" arrivalLane="mainlane_16_0" arrivalPos="997.88" arrivalSpeed="27.30" duration="70.00" routeLength="1401.61" waitingTime="0.00" waitingCount="0" stopTime="0.00" timeLoss="11.32" rerouteNo="1" devices="tripinfo_tedaxinghuoche_taiping_ru.1 routing_tedaxinghuoche_taiping_ru.1" vType="tedaxinghuoche" speedFactor="0.96" vaporized=""/>
    <tripinfo id="xiaokeche_taiping_ru.13" depart="21.00" departLane="TP_ZR1_0" departPos="88.28" departSpeed="0.00" departDelay="0.12" arrival="114.00" arrivalLane="mainlane_16_0" arrivalPos="997.88" arrivalSpeed="28.98" duration="93.00" routeLength="1750.80" waitingTime="0.00" waitingCount="0" stopTime="0.00" timeLoss="17.73" rerouteNo="1" devices="tripinfo_xiaokeche_taiping_ru.13 routing_xiaokeche_taiping_ru.13" vType="xiaokeche" speedFactor="1.02" vaporized=""/>
    <tripinfo id="xiaokeche_taiping_ru.17" depart="28.00" departLane="TP_ZR1_1" departPos="65.73" departSpeed="0.00" departDelay="0.70" arrival="114.00" arrivalLane="mainlane_16_1" arrivalPos="997.88" arrivalSpeed="32.33" duration="86.00" routeLength="1773.35" waitingTime="0.00" waitingCount="0" stopTime="0.00" timeLoss="15.32" rerouteNo="1" devices="tripinfo_xiaokeche_taiping_ru.17 routing_xiaokeche_taiping_ru.17" vType="xiaokeche" speedFactor="1.18" vaporized=""/>
    <tripinfo id="xiaokeche_taiping_ru.30" depart="49.00" departLane="TP_ZR1_1" departPos="445.13" departSpeed="0.00" departDelay="0.82" arrival="116.00" arrivalLane="mainlane_16_0" arrivalPos="997.88" arrivalSpeed="27.50" duration="67.00" routeLength="1393.95" waitingTime="0.00" waitingCount="0" stopTime="0.00" timeLoss="6.69" rerouteNo="1" devices="tripinfo_xiaokeche_taiping_ru.30 routing_xiaokeche_taiping_ru.30" vType="xiaokeche" speedFactor="0.84" vaporized=""/>
    <tripinfo id="xiaokeche_taiping_ru.37" depart="60.00" departLane="TP_ZR1_1" departPos="468.97" departSpeed="0.00" departDelay="0.58" arrival="116.00" arrivalLane="mainlane_16_1" arrivalPos="997.88" arrivalSpeed="32.80" duration="56.00" routeLength="1370.11" waitingTime="0.00" waitingCount="0" stopTime="0.00" timeLoss="9.03" rerouteNo="1" devices="tripinfo_xiaokeche_taiping_ru.37 routing_xiaokeche_taiping_ru.37" vType="xiaokeche" speedFactor="1.14" vaporized=""/>
    <tripinfo id="xiaokeche_taiping_ru.12" depart="20.00" departLane="TP_ZR1_1" departPos="24.49" departSpeed="0.00" departDelay="0.73" arrival="117.00" arrivalLane="mainlane_16_0" arrivalPos="997.88" arrivalSpeed="29.17" duration="97.00" routeLength="1814.59" waitingTime="0.00" waitingCount="0" stopTime="0.00" timeLoss="18.26" rerouteNo="1" devices="tripinfo_xiaokeche_taiping_ru.12 routing_xiaokeche_taiping_ru.12" vType="xiaokeche" speedFactor="1.04" vaporized=""/>
    <tripinfo id="xiaoxinghuoche_taiping_ru.1" depart="25.00" departLane="TP_ZR1_0" departPos="96.29" departSpeed="0.00" departDelay="0.51" arrival="120.00" arrivalLane="mainlane_16_0" arrivalPos="997.88" arrivalSpeed="27.67" duration="95.00" routeLength="1742.79" waitingTime="0.00" waitingCount="0" stopTime="0.00" timeLoss="13.19" rerouteNo="1" devices="tripinfo_xiaoxinghuoche_taiping_ru.1 routing_xiaoxinghuoche_taiping_ru.1" vType="xiaoxinghuoche" speedFactor="1.01" vaporized=""/>
    <tripinfo id="xiaokeche_taiping_ru.32" depart="54.00" departLane="TP_ZR1_1" departPos="347.37" departSpeed="0.00" departDelay="2.61" arrival="121.00" arrivalLane="mainlane_16_0" arrivalPos="997.88" arrivalSpeed="29.60" duration="67.00" routeLength="1491.71" waitingTime="0.00" waitingCount="0" stopTime="0.00" timeLoss="10.32" rerouteNo="1" devices="tripinfo_xiaokeche_taiping_ru.32 routing_xiaokeche_taiping_ru.32" vType="xiaokeche" speedFactor="1.02" vaporized=""/>
    <tripinfo id="xiaokeche_taiping_ru.40" depart="66.00" departLane="TP_ZR1_1" departPos="421.13" departSpeed="0.00" departDelay="1.76" arrival="123.00" arrivalLane="mainlane_16_1" arrivalPos="997.88" arrivalSpeed="32.37" duration="57.00" routeLength="1417.95" waitingTime="0.00" waitingCount="0" stopTime="0.00" timeLoss="5.78" rerouteNo="1" devices="tripinfo_xiaokeche_taiping_ru.40 routing_xiaokeche_taiping_ru.40" vType="xiaokeche" speedFactor="1.04" vaporized=""/>
    <tripinfo id="xiaokeche_taiping_ru.43" depart="71.00" departLane="TP_ZR1_1" departPos="570.28" departSpeed="0.00" departDelay="1.94" arrival="123.00" arrivalLane="mainlane_16_0" arrivalPos="997.88" arrivalSpeed="29.32" duration="52.00" routeLength="1268.80" waitingTime="0.00" waitingCount="0" stopTime="0.00" timeLoss="6.13" rerouteNo="1" devices="tripinfo_xiaokeche_taiping_ru.43 routing_xiaokeche_taiping_ru.43" vType="xiaokeche" speedFactor="0.92" vaporized=""/>
    <tripinfo id="xiaokeche_taiping_ru.36" depart="58.00" departLane="TP_ZR1_1" departPos="392.46" departSpeed="0.00" departDelay="0.18" arrival="124.00" arrivalLane="mainlane_16_0" arrivalPos="997.88" arrivalSpeed="31.70" duration="66.00" routeLength="1446.62" waitingTime="0.00" waitingCount="0" stopTime="0.00" timeLoss="9.86" rerouteNo="1" devices="tripinfo_xiaokeche_taiping_ru.36 routing_xiaokeche_taiping_ru.36" vType="xiaokeche" speedFactor="0.97" vaporized=""/>
    <tripinfo id="xiaokeche_taiping_ru.61" depart="98.00" departLane="TP_ZR1_1" departPos="426.10" departSpeed="0.00" departDelay="0.03" arrival="126.00" arrivalLane="mainlane_16_1" arrivalPos="997.88" arrivalSpeed="23.07" duration="28.00" routeLength="1412.98" waitingTime="0.00" waitingCount="0" stopTime="0.00" timeLoss="4.62" rerouteNo="1" devices="tripinfo_xiaokeche_taiping_ru.61 routing_xiaokeche_taiping_ru.61" vType="xiaokeche" speedFactor="0.94" vaporized="teleport"/>
    <tripinfo id="zhongxinghuoche_xinlian_ru.0" depart="0.00" departLane="XL_ZR2_0" departPos="57.37" departSpeed="0.00" departDelay="0.00" arrival="128.00" arrivalLane="mainlane_16_1" arrivalPos="997.88" arrivalSpeed="27.72" duration="128.00" routeLength="3963.43" waitingTime="0.00" waitingCount="0" stopTime="0.00" timeLoss="13.82" rerouteNo="1" devices="tripinfo_zhongxinghuoche_xinlian_ru.0 routing_zhongxinghuoche_xinlian_ru.0" vType="zhongxinghuoche" speedFactor="0.97" vaporized="teleport"/>
    <tripinfo id="daxinghuoche_taiping_ru.3" depart="66.00" departLane="TP_ZR1_0" departPos="500.83" departSpeed="0.00" departDelay="5.66" arrival="130.00" arrivalLane="mainlane_16_0" arrivalPos="997.88" arrivalSpeed="27.19" duration="64.00" routeLength="1338.25" waitingTime="0.00" waitingCount="0" stopTime="0.00" timeLoss="11.38" rerouteNo="1" devices="tripinfo_daxinghuoche_taiping_ru.3 routing_daxinghuoche_taiping_ru.3" vType="daxinghuoche" speedFactor="1.02" vaporized=""/>
    <tripinfo id="xiaokeche_houjienan_chu.1" depart="3.00" departLane="mainlane01_4" departPos="104.39" departSpeed="0.00" departDelay="0.58" arrival="131.00" arrivalLane="HJN_ZC1_1" arrivalPos="42.55" arrivalSpeed="19.00" duration="128.00" routeLength="3481.24" waitingTime="0.00" waitingCount="0" stopTime="0.00" timeLoss="21.27" rerouteNo="1" devices="tripinfo_xiaokeche_houjienan_chu.1 routing_xiaokeche_houjienan_chu.1" vType="xiaokeche" speedFactor="1.18" vaporized=""/>
    <tripinfo id="daxinghuoche_xinlian_ru.0" depart="0.00" departLane="XL_ZR2_0" departPos="13.07" departSpeed="0.00" departDelay="0.00" arrival="131.00" arrivalLane="mainlane_16_1" arrivalPos="997.88" arrivalSpeed="27.76" duration="131.00" routeLength="4007.73" waitingTime="0.00" waitingCount="0" stopTime="0.00" timeLoss="14.00" rerouteNo="1" devices="tripinfo_daxinghuoche_xinlian_ru.0 routing_daxinghuoche_xinlian_ru.0" vType="daxinghuoche" speedFactor="0.97" vaporized="teleport"/>
    <tripinfo id="dakeche_taiping_ru.1" depart="50.00" departLane="TP_ZR1_0" departPos="331.38" departSpeed="0.00" departDelay="1.35" arrival="132.00" arrivalLane="mainlane_16_0" arrivalPos="997.88" arrivalSpeed="27.59" duration="82.00" routeLength="1507.70" waitingTime="0.00" waitingCount="0" stopTime="0.00" timeLoss="17.17" rerouteNo="1" devices="tripinfo_dakeche_taiping_ru.1 routing_dakeche_taiping_ru.1" vType="dakeche" speedFactor="1.00" vaporized=""/>
    <tripinfo id="xiaokeche_houjienan_chu.2" depart="7.00" departLane="mainlane01_3" departPos="90.85" departSpeed="0.00" departDelay="2.16" arrival="133.00" arrivalLane="HJN_ZC1_0" arrivalPos="42.55" arrivalSpeed="15.69" duration="126.00" routeLength="3494.78" waitingTime="0.00" waitingCount="0" stopTime="0.00" timeLoss="13.84" rerouteNo="1" devices="tripinfo_xiaokeche_houjienan_chu.2 routing_xiaokeche_houjienan_chu.2" vType="xiaokeche" speedFactor="0.97" vaporized=""/>
    <tripinfo id="xiaokeche_taiping_ru.27" depart="44.00" departLane="TP_ZR1_1" departPos="210.13" departSpeed="0.00" departDelay="0.64" arrival="134.00" arrivalLane="mainlane_16_0" arrivalPos="997.88" arrivalSpeed="30.94" duration="90.00" routeLength="1628.95" waitingTime="0.00" waitingCount="0" stopTime="0.00" timeLoss="23.42" rerouteNo="1" devices="tripinfo_xiaokeche_taiping_ru.27 routing_xiaokeche_taiping_ru.27" vType="xiaokeche" speedFactor="1.03" vaporized=""/>
    <tripinfo id="xiaoxinghuoche_taiping_ru.2" depart="50.00" departLane="TP_ZR1_0" departPos="269.31" departSpeed="0.00" departDelay="1.02" arrival="135.00" arrivalLane="mainlane_16_0" arrivalPos="997.88" arrivalSpeed="27.68" duration="85.00" routeLength="1569.77" waitingTime="0.00" waitingCount="0" stopTime="0.00" timeLoss="16.33" rerouteNo="1" devices="tripinfo_xiaoxinghuoche_taiping_ru.2 routing_xiaoxinghuoche_taiping_ru.2" vType="xiaoxinghuoche" speedFactor="1.02" vaporized=""/>
    <tripinfo id="xiaokeche_taiping_ru.29" depart="49.00" departLane="TP_ZR1_1" departPos="205.24" departSpeed="0.00" departDelay="2.43" arrival="136.00" arrivalLane="mainlane_16_0" arrivalPos="997.88" arrivalSpeed="29.85" duration="87.00" routeLength="1633.84" waitingTime="0.00" waitingCount="0" stopTime="0.00" timeLoss="12.30" rerouteNo="1" devices="tripinfo_xiaokeche_taiping_ru.29 routing_xiaokeche_taiping_ru.29" vType="xiaokeche" speedFactor="0.92" vaporized=""/>
    <tripinfo id="xiaokeche_houjienan_chu.4" depart="14.00" departLane="mainlane01_4" departPos="103.42" departSpeed="0.00" departDelay="4.33" arrival="137.00" arrivalLane="HJN_ZC1_1" arrivalPos="42.55" arrivalSpeed="16.09" duration="123.00" routeLength="3482.21" waitingTime="0.00" waitingCount="0" stopTime="0.00" timeLoss="14.40" rerouteNo="1" devices="tripinfo_xiaokeche_houjienan_chu.4 routing_xiaokeche_houjienan_chu.4" vType="xiaokeche" speedFactor="1.02" vaporized=""/>
    <tripinfo id="xiaokeche_taiping_ru.24" depart="41.00" departLane="TP_ZR1_1" departPos="6.70" departSpeed="0.00" departDelay="2.46" arrival="137.00" arrivalLane="mainlane_16_0" arrivalPos="997.88" arrivalSpeed="32.38" duration="96.00" routeLength="1832.38" waitingTime="0.00" waitingCount="0" stopTime="0.00" timeLoss="19.25" rerouteNo="1" devices="tripinfo_xiaokeche_taiping_ru.24 routing_xiaokeche_taiping_ru.24" vType="xiaokeche" speedFactor="1.12" vaporized=""/>
    <tripinfo id="xiaokeche_taiping_ru.31" depart="50.00" departLane="TP_ZR1_1" departPos="228.04" departSpeed="0.00" departDelay="0.21" arrival="138.00" arrivalLane="mainlane_16_0" arrivalPos="997.88" arrivalSpeed="26.73" duration="88.00" routeLength="1611.04" waitingTime="0.00" waitingCount="0" stopTime="0.00" timeLoss="7.97" rerouteNo="1" devices="tripinfo_xiaokeche_taiping_ru.31 routing_xiaokeche_taiping_ru.31" vType="xiaokeche" speedFactor="0.83" vaporized=""/>
    <tripinfo id="xiaokeche_houjienan_chu.5" depart="18.00" departLane="mainlane01_3" departPos="148.04" departSpeed="0.00" departDelay="5.91" arrival="139.00" arrivalLane="HJN_ZC1_1" arrivalPos="42.55" arrivalSpeed="17.40" duration="121.00" routeLength="3437.59" waitingTime="0.00" waitingCount="0" stopTime="0.00" timeLoss="14.41" rerouteNo="1" devices="tripinfo_xiaokeche_houjienan_chu.5 routing_xiaokeche_houjienan_chu.5" vType="xiaokeche" speedFactor="1.12" vaporized=""/>
    <tripinfo id="xiaokeche_taiping_ru.26" depart="42.00" departLane="TP_ZR1_1" departPos="151.93" departSpeed="0.00" departDelay="0.24" arrival="139.00" arrivalLane="mainlane_16_0" arrivalPos="997.88" arrivalSpeed="28.21" duration="97.00" routeLength="1687.15" waitingTime="0.00" waitingCount="0" stopTime="0.00" timeLoss="28.80" rerouteNo="1" devices="tripinfo_xiaokeche_taiping_ru.26 routing_xiaokeche_taiping_ru.26" vType="xiaokeche" speedFactor="1.09" vaporized=""/>
    <tripinfo id="xiaokeche_taiping_ru.47" depart="85.00" departLane="TP_ZR1_1" departPos="499.14" departSpeed="0.00" departDelay="9.52" arrival="140.00" arrivalLane="mainlane_16_0" arrivalPos="997.88" arrivalSpeed="32.03" duration="55.00" routeLength="1339.94" waitingTime="0.00" waitingCount="0" stopTime="0.00" timeLoss="6.21" rerouteNo="1" devices="tripinfo_xiaokeche_taiping_ru.47 routing_xiaokeche_taiping_ru.47" vType="xiaokeche" speedFactor="0.97" vaporized=""/>
    <tripinfo id="xiaokeche_taiping_ru.21" depart="37.00" departLane="TP_ZR1_1" departPos="19.91" departSpeed="0.00" departDelay="3.27" arrival="141.00" arrivalLane="mainlane_16_0" arrivalPos="997.88" arrivalSpeed="30.18" duration="104.00" routeLength="1819.17" waitingTime="0.00" waitingCount="0" stopTime="0.00" timeLoss="18.29" rerouteNo="1" devices="tripinfo_xiaokeche_taiping_ru.21 routing_xiaokeche_taiping_ru.21" vType="xiaokeche" speedFactor="0.95" vaporized=""/>
    <tripinfo id="xiaokeche_taiping_ru.48" depart="85.00" departLane="TP_ZR1_1" departPos="469.44" departSpeed="0.00" departDelay="7.91" arrival="141.00" arrivalLane="mainlane_16_1" arrivalPos="997.88" arrivalSpeed="32.56" duration="56.00" routeLength="1369.64" waitingTime="0.00" waitingCount="0" stopTime="0.00" timeLoss="6.24" rerouteNo="1" devices="tripinfo_xiaokeche_taiping_ru.48 routing_xiaokeche_taiping_ru.48" vType="xiaokeche" speedFactor="0.98" vaporized=""/>
    <tripinfo id="daxinghuoche_taiping_ru.2" depart="42.00" departLane="TP_ZR1_0" departPos="132.78" departSpeed="0.00" departDelay="1.78" arrival="142.00" arrivalLane="mainlane_16_0" arrivalPos="997.88" arrivalSpeed="27.18" duration="100.00" routeLength="1706.30" waitingTime="0.00" waitingCount="0" stopTime="0.00" timeLoss="21.77" rerouteNo="1" devices="tripinfo_daxinghuoche_taiping_ru.2 routing_daxinghuoche_taiping_ru.2" vType="daxinghuoche" speedFactor="1.03" vaporized=""/>
    <tripinfo id="xiaokeche_taiping_ru.23" depart="37.00" departLane="TP_ZR1_0" departPos="68.65" departSpeed="0.00" departDelay="0.06" arrival="144.00" arrivalLane="mainlane_16_0" arrivalPos="997.88" arrivalSpeed="30.56" duration="107.00" routeLength="1770.43" waitingTime="0.00" waitingCount="0" stopTime="0.00" timeLoss="30.82" rerouteNo="1" devices="tripinfo_xiaokeche_taiping_ru.23 routing_xiaokeche_taiping_ru.23" vType="xiaokeche" speedFactor="1.04" vaporized=""/>
    <tripinfo id="xiaokeche_taiping_ru.38" depart="63.00" departLane="TP_ZR1_1" departPos="68.73" departSpeed="0.00" departDelay="1.97" arrival="144.00" arrivalLane="mainlane_16_1" arrivalPos="997.88" arrivalSpeed="32.97" duration="81.00" routeLength="1770.35" waitingTime="0.00" waitingCount="0" stopTime="0.00" timeLoss="8.55" rerouteNo="1" devices="tripinfo_xiaokeche_taiping_ru.38 routing_xiaokeche_taiping_ru.38" vType="xiaokeche" speedFactor="1.13" vaporized=""/>
    <tripinfo id="xiaokeche_taiping_ru.39" depart="63.00" departLane="TP_ZR1_1" departPos="206.31" departSpeed="0.00" departDelay="0.37" arrival="145.00" arrivalLane="mainlane_16_0" arrivalPos="997.88" arrivalSpeed="31.23" duration="82.00" routeLength="1632.77" waitingTime="0.00" waitingCount="0" stopTime="0.00" timeLoss="13.32" rerouteNo="1" devices="tripinfo_xiaokeche_taiping_ru.39 routing_xiaokeche_taiping_ru.39" vType="xiaokeche" speedFactor="0.99" vaporized=""/>