<?xml version="1.0" encoding="UTF-8"?>

<!-- generated on 2021-11-05 23:15:42 by Eclipse SUMO GUI Version 1.10.0
<configuration xmlns:xsi="http://www.w3.org/2001/XMLSchema-instance" xsi:noNamespaceSchemaLocation="http://sumo.dlr.de/xsd/sumoConfiguration.xsd">

    <input>
        <net-file value="F:\sumo_pro/traci_main\guangshen\guangshen\guangshen_ALL.net.xml"/>
        <route-files value="F:\sumo_pro/traci_main\guangshen\guangshen\guangshen_ALL.rou.xml"/>
    </input>

    <output>
        <tripinfo-output value="F:\sumo_pro\traci_main\guangshen\guangshen/tripinfo2_TEST.xml"/>
    </output>

    <time>
        <begin value="0"/>
        <end value="20000"/>
    </time>

    <report>
        <verbose value="true"/>
        <duration-log.statistics value="true"/>
    </report>

    <traci_server>
        <remote-port value="57827"/>
    </traci_server>

    <gui_only>
        <gui-settings-file value="F:\sumo_pro/traci_main\guangshen\guangshen\gui-settings2.cfg"/>
        <quit-on-end value="true"/>
        <start value="true"/>
    </gui_only>

</configuration>
-->

<tripinfos xmlns:xsi="http://www.w3.org/2001/XMLSchema-instance" xsi:noNamespaceSchemaLocation="http://sumo.dlr.de/xsd/tripinfo_file.xsd">
    <tripinfo id="xiaokeche_houjienan_chu.1" depart="3.00" departLane="mainlane01_4" departPos="143.09" departSpeed="0.00" departDelay="0.58" arrival="123.00" arrivalLane="HJN_ZC_0" arrivalPos="113.19" arrivalSpeed="18.26" duration="120.00" routeLength="3525.48" waitingTime="0.00" waitingCount="0" stopTime="0.00" timeLoss="10.21" rerouteNo="1" devices="tripinfo_xiaokeche_houjienan_chu.1 routing_xiaokeche_houjienan_chu.1" vType="xiaokeche" speedFactor="1.16" vaporized=""/>
    <tripinfo id="xiaokeche_houjienan_chu.3" depart="13.00" departLane="mainlane01_3" departPos="109.04" departSpeed="0.00" departDelay="5.75" arrival="149.00" arrivalLane="HJN_ZC_1" arrivalPos="113.19" arrivalSpeed="16.00" duration="136.00" routeLength="3559.53" waitingTime="1.00" waitingCount="1" stopTime="0.00" timeLoss="22.79" rerouteNo="1" devices="tripinfo_xiaokeche_houjienan_chu.3 routing_xiaokeche_houjienan_chu.3" vType="xiaokeche" speedFactor="1.01" vaporized=""/>
    <tripinfo id="xiaokeche_houjienan_chu.2" depart="5.00" departLane="mainlane01_4" departPos="116.49" departSpeed="0.00" departDelay="0.16" arrival="154.00" arrivalLane="HJN_ZC_0" arrivalPos="113.19" arrivalSpeed="12.89" duration="149.00" routeLength="3552.08" waitingTime="0.00" waitingCount="0" stopTime="0.00" timeLoss="11.31" rerouteNo="1" devices="tripinfo_xiaokeche_houjienan_chu.2 routing_xiaokeche_houjienan_chu.2" vType="xiaokeche" speedFactor="0.83" vaporized=""/>
    <tripinfo id="daxinghuoche_houjienan_chu.0" depart="6.00" departLane="mainlane01_0" departPos="145.77" departSpeed="0.00" departDelay="6.00" arrival="158.00" arrivalLane="HJN_ZC_0" arrivalPos="113.19" arrivalSpeed="15.86" duration="152.00" routeLength="3522.80" waitingTime="0.00" waitingCount="0" stopTime="0.00" timeLoss="20.00" rerouteNo="1" devices="tripinfo_daxinghuoche_houjienan_chu.0 routing_daxinghuoche_houjienan_chu.0" vType="daxinghuoche" speedFactor="0.97" vaporized=""/>
    <tripinfo id="xiaokeche_houjienan_chu.4" depart="16.00" departLane="mainlane01_4" departPos="23.14" departSpeed="0.00" departDelay="6.33" arrival="160.00" arrivalLane="HJN_ZC_1" arrivalPos="113.19" arrivalSpeed="19.33" duration="144.00" routeLength="3645.43" waitingTime="0.00" waitingCount="0" stopTime="0.00" timeLoss="30.14" rerouteNo="1" devices="tripinfo_xiaokeche_houjienan_chu.4 routing_xiaokeche_houjienan_chu.4" vType="xiaokeche" speedFactor="1.18" vaporized=""/>
    <tripinfo id="dakeche_houjienan_chu.0" depart="3.00" departLane="mainlane01_0" departPos="104.17" departSpeed="0.00" departDelay="3.00" arrival="161.00" arrivalLane="HJN_ZC_0" arrivalPos="113.19" arrivalSpeed="16.41" duration="158.00" routeLength="3564.40" waitingTime="0.00" waitingCount="0" stopTime="0.00" timeLoss="24.62" rerouteNo="1" devices="tripinfo_dakeche_houjienan_chu.0 routing_dakeche_houjienan_chu.0" vType="dakeche" speedFactor="1.00" vaporized=""/>
    <tripinfo id="xiaokeche_houjienan_chu.0" depart="0.00" departLane="mainlane01_1" departPos="6.65" departSpeed="0.00" departDelay="0.00" arrival="167.00" arrivalLane="HJN_ZC_0" arrivalPos="113.19" arrivalSpeed="13.74" duration="167.00" routeLength="3661.92" waitingTime="0.00" waitingCount="0" stopTime="0.00" timeLoss="26.78" rerouteNo="1" devices="tripinfo_xiaokeche_houjienan_chu.0 routing_xiaokeche_houjienan_chu.0" vType="xiaokeche" speedFactor="0.83" vaporized=""/>
    <tripinfo id="zhongxinghuoche_houjienan_chu.0" depart="5.00" departLane="mainlane01_0" departPos="36.07" departSpeed="0.00" departDelay="5.00" arrival="169.00" arrivalLane="HJN_ZC_0" arrivalPos="113.19" arrivalSpeed="15.13" duration="164.00" routeLength="3632.50" waitingTime="0.00" waitingCount="0" stopTime="0.00" timeLoss="26.96" rerouteNo="1" devices="tripinfo_zhongxinghuoche_houjienan_chu.0 routing_zhongxinghuoche_houjienan_chu.0" vType="zhongxinghuoche" speedFactor="0.94" vaporized=""/>
    <tripinfo id="xiaoxinghuoche_houjienan_chu.0" depart="3.00" departLane="mainlane01_0" departPos="7.04" departSpeed="0.00" departDelay="3.00" arrival="170.00" arrivalLane="HJN_ZC_0" arrivalPos="113.19" arrivalSpeed="15.49" duration="167.00" routeLength="3661.53" waitingTime="0.00" waitingCount="0" stopTime="0.00" timeLoss="31.43" rerouteNo="1" devices="tripinfo_xiaoxinghuoche_houjienan_chu.0 routing_xiaoxinghuoche_houjienan_chu.0" vType="xiaoxinghuoche" speedFactor="1.02" vaporized=""/>
    <tripinfo id="tedaxinghuoche_houjienan_chu.0" depart="6.00" departLane="mainlane01_0" departPos="4.54" departSpeed="0.00" departDelay="6.00" arrival="172.00" arrivalLane="HJN_ZC_0" arrivalPos="113.19" arrivalSpeed="15.23" duration="166.00" routeLength="3664.03" waitingTime="1.00" waitingCount="1" stopTime="0.00" timeLoss="28.38" rerouteNo="1" devices="tripinfo_tedaxinghuoche_houjienan_chu.0 routing_tedaxinghuoche_houjienan_chu.0" vType="tedaxinghuoche" speedFactor="0.93" vaporized=""/>
    <tripinfo id="xiaokeche_houjienan_chu.7" depart="24.00" departLane="mainlane01_0" departPos="75.07" departSpeed="0.00" departDelay="7.07" arrival="174.00" arrivalLane="HJN_ZC_0" arrivalPos="113.19" arrivalSpeed="15.67" duration="150.00" routeLength="3593.50" waitingTime="0.00" waitingCount="0" stopTime="0.00" timeLoss="35.20" rerouteNo="1" devices="tripinfo_xiaokeche_houjienan_chu.7 routing_xiaokeche_houjienan_chu.7" vType="xiaokeche" speedFactor="1.00" vaporized=""/>
    <tripinfo id="xiaokeche_houjienan_chu.5" depart="17.00" departLane="mainlane01_2" departPos="47.83" departSpeed="0.00" departDelay="4.91" arrival="184.00" arrivalLane="HJN_ZC_1" arrivalPos="113.19" arrivalSpeed="16.13" duration="167.00" routeLength="3620.74" waitingTime="5.00" waitingCount="1" stopTime="0.00" timeLoss="52.45" rerouteNo="1" devices="tripinfo_xiaokeche_houjienan_chu.5 routing_xiaokeche_houjienan_chu.5" vType="xiaokeche" speedFactor="1.04" vaporized=""/>
    <tripinfo id="xiaokeche_houjienan_chu.6" depart="17.00" departLane="mainlane01_1" departPos="27.53" departSpeed="0.00" departDelay="2.49" arrival="189.00" arrivalLane="HJN_ZC_0" arrivalPos="113.19" arrivalSpeed="13.71" duration="172.00" routeLength="3641.04" waitingTime="1.00" waitingCount="1" stopTime="0.00" timeLoss="36.14" rerouteNo="1" devices="tripinfo_xiaokeche_houjienan_chu.6 routing_xiaokeche_houjienan_chu.6" vType="xiaokeche" speedFactor="0.85" vaporized=""/>
    <tripinfo id="xiaokeche_houjienan_chu.9" depart="37.00" departLane="mainlane01_4" departPos="135.19" departSpeed="0.00" departDelay="15.24" arrival="191.00" arrivalLane="HJN_ZC_0" arrivalPos="113.19" arrivalSpeed="16.45" duration="154.00" routeLength="3533.38" waitingTime="2.00" waitingCount="1" stopTime="0.00" timeLoss="41.10" rerouteNo="1" devices="tripinfo_xiaokeche_houjienan_chu.9 routing_xiaokeche_houjienan_chu.9" vType="xiaokeche" speedFactor="1.02" vaporized=""/>
    <tripinfo id="xiaoxinghuoche_houjienan_chu.1" depart="30.00" departLane="mainlane01_0" departPos="73.15" departSpeed="0.00" departDelay="6.47" arrival="192.00" arrivalLane="HJN_ZC_0" arrivalPos="113.19" arrivalSpeed="16.27" duration="162.00" routeLength="3595.42" waitingTime="0.00" waitingCount="0" stopTime="0.00" timeLoss="27.57" rerouteNo="1" devices="tripinfo_xiaoxinghuoche_houjienan_chu.1 routing_xiaoxinghuoche_houjienan_chu.1" vType="xiaoxinghuoche" speedFactor="0.98" vaporized=""/>
    <tripinfo id="xiaokeche_houjienan_chu.8" depart="33.00" departLane="mainlane01_4" departPos="42.25" departSpeed="0.00" departDelay="13.66" arrival="199.00" arrivalLane="HJN_ZC_0" arrivalPos="113.19" arrivalSpeed="15.37" duration="166.00" routeLength="3626.32" waitingTime="0.00" waitingCount="0" stopTime="0.00" timeLoss="42.66" rerouteNo="1" devices="tripinfo_xiaokeche_houjienan_chu.8 routing_xiaokeche_houjienan_chu.8" vType="xiaokeche" speedFactor="0.94" vaporized=""/>
    <tripinfo id="xiaokeche_houjienan_chu.11" depart="48.00" departLane="mainlane01_1" departPos="34.70" departSpeed="0.00" departDelay="21.40" arrival="202.00" arrivalLane="HJN_ZC_0" arrivalPos="113.19" arrivalSpeed="15.78" duration="154.00" routeLength="3633.87" waitingTime="0.00" waitingCount="0" stopTime="0.00" timeLoss="33.94" rerouteNo="1" devices="tripinfo_xiaokeche_houjienan_chu.11 routing_xiaokeche_houjienan_chu.11" vType="xiaokeche" speedFactor="0.97" vaporized=""/>
    <tripinfo id="xiaoxinghuoche_houjienan_chu.2" depart="51.00" departLane="mainlane01_0" departPos="114.22" departSpeed="0.00" departDelay="3.94" arrival="213.00" arrivalLane="HJN_ZC_0" arrivalPos="113.19" arrivalSpeed="14.03" duration="162.00" routeLength="3554.35" waitingTime="0.00" waitingCount="0" stopTime="0.00" timeLoss="26.55" rerouteNo="1" devices="tripinfo_xiaoxinghuoche_houjienan_chu.2 routing_xiaoxinghuoche_houjienan_chu.2" vType="xiaoxinghuoche" speedFactor="0.87" vaporized=""/>
    <tripinfo id="tedaxinghuoche_houjienan_chu.1" depart="46.00" departLane="mainlane01_0" departPos="67.75" departSpeed="0.00" departDelay="5.55" arrival="215.00" arrivalLane="HJN_ZC_0" arrivalPos="113.19" arrivalSpeed="16.73" duration="169.00" routeLength="3600.82" waitingTime="0.00" waitingCount="0" stopTime="0.00" timeLoss="35.65" rerouteNo="1" devices="tripinfo_tedaxinghuoche_houjienan_chu.1 routing_tedaxinghuoche_houjienan_chu.1" vType="tedaxinghuoche" speedFactor="1.03" vaporized=""/>
    <tripinfo id="xiaokeche_houjienan_chu.10" depart="47.00" departLane="mainlane01_3" departPos="24.02" departSpeed="0.00" departDelay="22.82" arrival="217.00" arrivalLane="HJN_ZC_1" arrivalPos="113.19" arrivalSpeed="15.94" duration="170.00" routeLength="3644.55" waitingTime="4.00" waitingCount="1" stopTime="0.00" timeLoss="53.92" rerouteNo="1" devices="tripinfo_xiaokeche_houjienan_chu.10 routing_xiaokeche_houjienan_chu.10" vType="xiaokeche" speedFactor="1.01" vaporized=""/>
    <tripinfo id="daxinghuoche_houjienan_chu.1" depart="34.00" departLane="mainlane01_0" departPos="15.68" departSpeed="0.00" departDelay="0.04" arrival="219.00" arrivalLane="HJN_ZC_0" arrivalPos="113.19" arrivalSpeed="15.85" duration="185.00" routeLength="3652.89" waitingTime="2.00" waitingCount="1" stopTime="0.00" timeLoss="48.34" rerouteNo="1" devices="tripinfo_daxinghuoche_houjienan_chu.1 routing_daxinghuoche_houjienan_chu.1" vType="daxinghuoche" speedFactor="0.98" vaporized=""/>
    <tripinfo id="xiaokeche_houjienan_chu.16" depart="70.00" departLane="mainlane01_0" departPos="99.52" departSpeed="0.00" departDelay="31.31" arrival="221.00" arrivalLane="HJN_ZC_0" arrivalPos="113.19" arrivalSpeed="15.65" duration="151.00" routeLength="3569.05" waitingTime="0.00" waitingCount="0" stopTime="0.00" timeLoss="37.12" rerouteNo="1" devices="tripinfo_xiaokeche_houjienan_chu.16 routing_xiaokeche_houjienan_chu.16" vType="xiaokeche" speedFactor="1.00" vaporized=""/>
    <tripinfo id="xiaokeche_houjienan_chu.15" depart="67.00" departLane="mainlane01_3" departPos="72.57" departSpeed="0.00" departDelay="30.73" arrival="231.00" arrivalLane="HJN_ZC_0" arrivalPos="113.19" arrivalSpeed="18.12" duration="164.00" routeLength="3596.00" waitingTime="0.00" waitingCount="0" stopTime="0.00" timeLoss="50.44" rerouteNo="1" devices="tripinfo_xiaokeche_houjienan_chu.15 routing_xiaokeche_houjienan_chu.15" vType="xiaokeche" speedFactor="1.10" vaporized=""/>
    <tripinfo id="xiaokeche_houjienan_chu.20" depart="87.00" departLane="mainlane01_3" departPos="137.25" departSpeed="0.00" departDelay="38.64" arrival="236.00" arrivalLane="HJN_ZC_0" arrivalPos="113.19" arrivalSpeed="15.86" duration="149.00" routeLength="3531.32" waitingTime="0.00" waitingCount="0" stopTime="0.00" timeLoss="31.99" rerouteNo="1" devices="tripinfo_xiaokeche_houjienan_chu.20 routing_xiaokeche_houjienan_chu.20" vType="xiaokeche" speedFactor="0.97" vaporized=""/>
    <tripinfo id="dakeche_houjienan_chu.1" depart="80.00" departLane="mainlane01_0" departPos="150.67" departSpeed="0.00" departDelay="6.53" arrival="237.00" arrivalLane="HJN_ZC_0" arrivalPos="113.19" arrivalSpeed="16.51" duration="157.00" routeLength="3517.90" waitingTime="0.00" waitingCount="0" stopTime="0.00" timeLoss="25.66" rerouteNo="1" devices="tripinfo_dakeche_houjienan_chu.1 routing_dakeche_houjienan_chu.1" vType="dakeche" speedFactor="1.00" vaporized=""/>
    <tripinfo id="xiaoxinghuoche_houjienan_chu.3" depart="74.00" departLane="mainlane01_0" departPos="80.68" departSpeed="0.00" departDelay="3.41" arrival="240.00" arrivalLane="HJN_ZC_0" arrivalPos="113.19" arrivalSpeed="16.00" duration="166.00" routeLength="3587.89" waitingTime="0.00" waitingCount="0" stopTime="0.00" timeLoss="32.27" rerouteNo="1" devices="tripinfo_xiaoxinghuoche_houjienan_chu.3 routing_xiaoxinghuoche_houjienan_chu.3" vType="xiaoxinghuoche" speedFactor="0.98" vaporized=""/>
    <tripinfo id="daxinghuoche_houjienan_chu.2" depart="74.00" departLane="mainlane01_0" departPos="27.99" departSpeed="0.00" departDelay="6.08" arrival="243.00" arrivalLane="HJN_ZC_0" arrivalPos="113.19" arrivalSpeed="16.04" duration="169.00" routeLength="3640.58" waitingTime="0.00" waitingCount="0" stopTime="0.00" timeLoss="32.90" rerouteNo="1" devices="tripinfo_daxinghuoche_houjienan_chu.2 routing_daxinghuoche_houjienan_chu.2" vType="daxinghuoche" speedFactor="0.97" vaporized=""/>
    <tripinfo id="xiaokeche_houjienan_chu.12" depart="56.00" departLane="mainlane01_1" departPos="16.71" departSpeed="0.00" departDelay="26.98" arrival="250.00" arrivalLane="HJN_ZC_1" arrivalPos="113.19" arrivalSpeed="13.85" duration="194.00" routeLength="3651.86" waitingTime="3.00" waitingCount="1" stopTime="0.00" timeLoss="63.50" rerouteNo="1" devices="tripinfo_xiaokeche_houjienan_chu.12 routing_xiaokeche_houjienan_chu.12" vType="xiaokeche" speedFactor="0.89" vaporized=""/>
    <tripinfo id="xiaokeche_houjienan_chu.13" depart="61.00" departLane="mainlane01_4" departPos="46.07" departSpeed="0.00" departDelay="29.57" arrival="252.00" arrivalLane="HJN_ZC_0" arrivalPos="113.19" arrivalSpeed="14.34" duration="191.00" routeLength="3622.50" waitingTime="0.00" waitingCount="0" stopTime="0.00" timeLoss="63.19" rerouteNo="1" devices="tripinfo_xiaokeche_houjienan_chu.13 routing_xiaokeche_houjienan_chu.13" vType="xiaokeche" speedFactor="0.91" vaporized=""/>
    <tripinfo id="tedaxinghuoche_houjienan_chu.2" depart="90.00" departLane="mainlane01_0" departPos="65.49" departSpeed="0.00" departDelay="9.10" arrival="253.00" arrivalLane="HJN_ZC_0" arrivalPos="113.19" arrivalSpeed="15.17" duration="163.00" routeLength="3603.08" waitingTime="0.00" waitingCount="0" stopTime="0.00" timeLoss="29.75" rerouteNo="1" devices="tripinfo_tedaxinghuoche_houjienan_chu.2 routing_tedaxinghuoche_houjienan_chu.2" vType="tedaxinghuoche" speedFactor="1.05" vaporized=""/>
    <tripinfo id="xiaokeche_houjienan_chu.18" depart="80.00" departLane="mainlane01_3" departPos="49.00" departSpeed="0.00" departDelay="36.48" arrival="255.00" arrivalLane="HJN_ZC_0" arrivalPos="113.19" arrivalSpeed="17.96" duration="175.00" routeLength="3619.57" waitingTime="0.00" waitingCount="0" stopTime="0.00" timeLoss="63.08" rerouteNo="1" devices="tripinfo_xiaokeche_houjienan_chu.18 routing_xiaokeche_houjienan_chu.18" vType="xiaokeche" speedFactor="1.23" vaporized=""/>
    <tripinfo id="xiaokeche_houjienan_chu.19" depart="86.00" departLane="mainlane01_4" departPos="41.79" departSpeed="0.00" departDelay="40.06" arrival="257.00" arrivalLane="HJN_ZC_0" arrivalPos="113.19" arrivalSpeed="15.05" duration="171.00" routeLength="3626.78" waitingTime="0.00" waitingCount="0" stopTime="0.00" timeLoss="49.77" rerouteNo="1" devices="tripinfo_xiaokeche_houjienan_chu.19 routing_xiaokeche_houjienan_chu.19" vType="xiaokeche" speedFactor="0.95" vaporized=""/>
    <tripinfo id="xiaokeche_houjienan_chu.17" depart="76.00" departLane="mainlane01_3" departPos="46.18" departSpeed="0.00" departDelay="34.89" arrival="260.00" arrivalLane="HJN_ZC_0" arrivalPos="113.19" arrivalSpeed="17.86" duration="184.00" routeLength="3622.39" waitingTime="1.00" waitingCount="1" stopTime="0.00" timeLoss="70.31" rerouteNo="1" devices="tripinfo_xiaokeche_houjienan_chu.17 routing_xiaokeche_houjienan_chu.17" vType="xiaokeche" speedFactor="1.12" vaporized=""/>
    <tripinfo id="xiaokeche_houjienan_ru.1" depart="3.00" departLane="HJN_ZR2_1" departPos="364.95" departSpeed="0.00" departDelay="0.58" arrival="263.00" arrivalLane="mainlane_16_1" arrivalPos="997.88" arrivalSpeed="33.15" duration="260.00" routeLength="7600.76" waitingTime="0.00" waitingCount="0" stopTime="0.00" timeLoss="18.87" rerouteNo="1" devices="tripinfo_xiaokeche_houjienan_ru.1 routing_xiaokeche_houjienan_ru.1" vType="xiaokeche" speedFactor="1.02" vaporized=""/>
    <tripinfo id="xiaokeche_houjienan_ru.0" depart="0.00" departLane="HJN_ZR2_1" departPos="329.07" departSpeed="0.00" departDelay="0.00" arrival="265.00" arrivalLane="mainlane_16_1" arrivalPos="997.88" arrivalSpeed="33.25" duration="265.00" routeLength="7636.64" waitingTime="0.00" waitingCount="0" stopTime="0.00" timeLoss="23.14" rerouteNo="1" devices="tripinfo_xiaokeche_houjienan_ru.0 routing_xiaokeche_houjienan_ru.0" vType="xiaokeche" speedFactor="1.09" vaporized=""/>
    <tripinfo id="xiaokeche_houjienan_chu.14" depart="63.00" departLane="mainlane01_2" departPos="7.46" departSpeed="0.00" departDelay="29.15" arrival="265.00" arrivalLane="HJN_ZC_1" arrivalPos="113.19" arrivalSpeed="15.69" duration="202.00" routeLength="3661.11" waitingTime="5.00" waitingCount="1" stopTime="0.00" timeLoss="81.36" rerouteNo="1" devices="tripinfo_xiaokeche_houjienan_chu.14 routing_xiaokeche_houjienan_chu.14" vType="xiaokeche" speedFactor="0.97" vaporized=""/>
    <tripinfo id="xiaoxinghuoche_houjienan_chu.4" depart="100.00" departLane="mainlane01_0" departPos="22.88" departSpeed="0.00" departDelay="5.88" arrival="266.00" arrivalLane="HJN_ZC_0" arrivalPos="113.19" arrivalSpeed="16.09" duration="166.00" routeLength="3645.69" waitingTime="0.00" waitingCount="0" stopTime="0.00" timeLoss="30.05" rerouteNo="1" devices="tripinfo_xiaoxinghuoche_houjienan_chu.4 routing_xiaoxinghuoche_houjienan_chu.4" vType="xiaoxinghuoche" speedFactor="1.00" vaporized=""/>
    <tripinfo id="daxinghuoche_houjienan_chu.3" depart="102.00" departLane="mainlane01_0" departPos="10.12" departSpeed="0.00" departDelay="0.11" arrival="268.00" arrivalLane="HJN_ZC_0" arrivalPos="113.19" arrivalSpeed="16.45" duration="166.00" routeLength="3658.45" waitingTime="0.00" waitingCount="0" stopTime="0.00" timeLoss="29.29" rerouteNo="1" devices="tripinfo_daxinghuoche_houjienan_chu.3 routing_daxinghuoche_houjienan_chu.3" vType="daxinghuoche" speedFactor="0.99" vaporized=""/>
    <tripinfo id="xiaokeche_houjienan_chu.24" depart="111.00" departLane="mainlane01_3" departPos="74.33" departSpeed="0.00" departDelay="52.97" arrival="274.00" arrivalLane="HJN_ZC_0" arrivalPos="113.19" arrivalSpeed="15.50" duration="163.00" routeLength="3594.24" waitingTime="4.00" waitingCount="1" stopTime="0.00" timeLoss="42.40" rerouteNo="1" devices="tripinfo_xiaokeche_houjienan_chu.24 routing_xiaokeche_houjienan_chu.24" vType="xiaokeche" speedFactor="0.96" vaporized=""/>
    <tripinfo id="xiaokeche_houjienan_chu.22" depart="101.00" departLane="mainlane01_4" departPos="39.48" departSpeed="0.00" departDelay="47.80" arrival="277.00" arrivalLane="HJN_ZC_0" arrivalPos="113.19" arrivalSpeed="13.81" duration="176.00" routeLength="3629.09" waitingTime="0.00" waitingCount="0" stopTime="0.00" timeLoss="44.16" rerouteNo="1" devices="tripinfo_xiaokeche_houjienan_chu.22 routing_xiaokeche_houjienan_chu.22" vType="xiaokeche" speedFactor="0.88" vaporized=""/>
    <tripinfo id="xiaoxinghuoche_houjienan_chu.5" depart="124.00" departLane="mainlane01_0" departPos="126.01" departSpeed="0.00" departDelay="6.36" arrival="278.00" arrivalLane="HJN_ZC_0" arrivalPos="113.19" arrivalSpeed="14.72" duration="154.00" routeLength="3542.56" waitingTime="0.00" waitingCount="0" stopTime="0.00" timeLoss="20.97" rerouteNo="1" devices="tripinfo_xiaoxinghuoche_houjienan_chu.5 routing_xiaoxinghuoche_houjienan_chu.5" vType="xiaoxinghuoche" speedFactor="0.93" vaporized=""/>
    <tripinfo id="xiaokeche_houjienan_chu.21" depart="99.00" departLane="mainlane01_3" departPos="31.89" departSpeed="0.00" departDelay="48.22" arrival="281.00" arrivalLane="HJN_ZC_0" arrivalPos="113.19" arrivalSpeed="14.76" duration="182.00" routeLength="3636.68" waitingTime="10.00" waitingCount="2" stopTime="0.00" timeLoss="56.96" rerouteNo="1" devices="tripinfo_xiaokeche_houjienan_chu.21 routing_xiaokeche_houjienan_chu.21" vType="xiaokeche" speedFactor="0.93" vaporized=""/>
    <tripinfo id="xiaokeche_houjienan_chu.31" depart="141.00" departLane="mainlane01_3" departPos="146.59" departSpeed="0.00" departDelay="66.04" arrival="282.00" arrivalLane="HJN_ZC_0" arrivalPos="113.19" arrivalSpeed="17.63" duration="141.00" routeLength="3521.98" waitingTime="1.00" waitingCount="1" stopTime="0.00" timeLoss="30.90" rerouteNo="1" devices="tripinfo_xiaokeche_houjienan_chu.31 routing_xiaokeche_houjienan_chu.31" vType="xiaokeche" speedFactor="1.15" vaporized=""/>
    <tripinfo id="xiaokeche_houjienan_chu.28" depart="126.00" departLane="mainlane01_2" departPos="20.22" departSpeed="0.00" departDelay="58.30" arrival="288.00" arrivalLane="HJN_ZC_0" arrivalPos="113.19" arrivalSpeed="13.70" duration="162.00" routeLength="3648.35" waitingTime="0.00" waitingCount="0" stopTime="0.00" timeLoss="21.34" rerouteNo="1" devices="tripinfo_xiaokeche_houjienan_chu.28 routing_xiaokeche_houjienan_chu.28" vType="xiaokeche" speedFactor="0.83" vaporized=""/>
    <tripinfo id="daxinghuoche_houjienan_chu.4" depart="137.00" departLane="mainlane01_0" departPos="112.13" departSpeed="0.00" departDelay="1.15" arrival="290.00" arrivalLane="HJN_ZC_0" arrivalPos="113.19" arrivalSpeed="15.99" duration="153.00" routeLength="3556.44" waitingTime="0.00" waitingCount="0" stopTime="0.00" timeLoss="21.43" rerouteNo="1" devices="tripinfo_daxinghuoche_houjienan_chu.4 routing_daxinghuoche_houjienan_chu.4" vType="daxinghuoche" speedFactor="1.09" vaporized=""/>
    <tripinfo id="tedaxinghuoche_houjienan_chu.3" depart="128.00" departLane="mainlane01_0" departPos="1.87" departSpeed="0.00" departDelay="6.65" arrival="294.00" arrivalLane="HJN_ZC_0" arrivalPos="113.19" arrivalSpeed="16.16" duration="166.00" routeLength="3666.70" waitingTime="0.00" waitingCount="0" stopTime="0.00" timeLoss="29.37" rerouteNo="1" devices="tripinfo_tedaxinghuoche_houjienan_chu.3 routing_tedaxinghuoche_houjienan_chu.3" vType="tedaxinghuoche" speedFactor="0.98" vaporized=""/>
    <tripinfo id="xiaokeche_houjienan_ru.4" depart="10.00" departLane="HJN_ZR2_1" departPos="106.87" departSpeed="0.00" departDelay="0.33" arrival="295.00" arrivalLane="mainlane_16_1" arrivalPos="997.88" arrivalSpeed="32.34" duration="285.00" routeLength="7858.84" waitingTime="0.00" waitingCount="0" stopTime="0.00" timeLoss="29.45" rerouteNo="1" devices="tripinfo_xiaokeche_houjienan_ru.4 routing_xiaokeche_houjienan_ru.4" vType="xiaokeche" speedFactor="1.10" vaporized=""/>
    <tripinfo id="xiaokeche_houjienan_chu.29" depart="129.00" departLane="mainlane01_4" departPos="68.60" departSpeed="0.00" departDelay="58.88" arrival="300.00" arrivalLane="HJN_ZC_0" arrivalPos="113.19" arrivalSpeed="15.53" duration="171.00" routeLength="3599.97" waitingTime="3.00" waitingCount="1" stopTime="0.00" timeLoss="52.47" rerouteNo="1" devices="tripinfo_xiaokeche_houjienan_chu.29 routing_xiaokeche_houjienan_chu.29" vType="xiaokeche" speedFactor="0.97" vaporized=""/>
    <tripinfo id="xiaokeche_houjienan_chu.23" depart="109.00" departLane="mainlane01_4" departPos="29.62" departSpeed="0.00" departDelay="53.39" arrival="302.00" arrivalLane="HJN_ZC_0" arrivalPos="113.19" arrivalSpeed="15.92" duration="193.00" routeLength="3638.95" waitingTime="2.00" waitingCount="2" stopTime="0.00" timeLoss="74.76" rerouteNo="1" devices="tripinfo_xiaokeche_houjienan_chu.23 routing_xiaokeche_houjienan_chu.23" vType="xiaokeche" speedFactor="0.98" vaporized=""/>
    <tripinfo id="xiaoxinghuoche_houjienan_chu.6" depart="147.00" departLane="mainlane01_0" departPos="76.03" departSpeed="0.00" departDelay="5.83" arrival="303.00" arrivalLane="HJN_ZC_0" arrivalPos="113.19" arrivalSpeed="16.30" duration="156.00" routeLength="3592.54" waitingTime="0.00" waitingCount="0" stopTime="0.00" timeLoss="21.91" rerouteNo="1" devices="tripinfo_xiaoxinghuoche_houjienan_chu.6 routing_xiaoxinghuoche_houjienan_chu.6" vType="xiaoxinghuoche" speedFactor="0.99" vaporized=""/>
    <tripinfo id="xiaokeche_houjienan_chu.26" depart="124.00" departLane="mainlane01_2" departPos="57.43" departSpeed="0.00" departDelay="61.13" arrival="304.00" arrivalLane="HJN_ZC_1" arrivalPos="113.19" arrivalSpeed="14.53" duration="180.00" routeLength="3611.14" waitingTime="10.00" waitingCount="2" stopTime="0.00" timeLoss="54.52" rerouteNo="1" devices="tripinfo_xiaokeche_houjienan_chu.26 routing_xiaokeche_houjienan_chu.26" vType="xiaokeche" speedFactor="0.92" vaporized=""/>
    <tripinfo id="dakeche_houjienan_chu.2" depart="151.00" departLane="mainlane01_0" departPos="72.56" departSpeed="0.00" departDelay="4.06" arrival="305.00" arrivalLane="HJN_ZC_0" arrivalPos="113.19" arrivalSpeed="16.21" duration="154.00" routeLength="3596.01" waitingTime="0.00" waitingCount="0" stopTime="0.00" timeLoss="19.76" rerouteNo="1" devices="tripinfo_dakeche_houjienan_chu.2 routing_dakeche_houjienan_chu.2" vType="dakeche" speedFactor="1.00" vaporized=""/>
    <tripinfo id="xiaokeche_houjienan_ru.20" depart="49.00" departLane="HJN_ZR2_1" departPos="406.44" departSpeed="0.00" departDelay="0.64" arrival="307.00" arrivalLane="mainlane_16_1" arrivalPos="997.88" arrivalSpeed="32.12" duration="258.00" routeLength="7559.27" waitingTime="0.00" waitingCount="0" stopTime="0.00" timeLoss="20.40" rerouteNo="1" devices="tripinfo_xiaokeche_houjienan_ru.20 routing_xiaokeche_houjienan_ru.20" vType="xiaokeche" speedFactor="1.04" vaporized=""/>
    <tripinfo id="xiaokeche_houjienan_chu.25" depart="118.00" departLane="mainlane01_2" departPos="87.96" departSpeed="0.00" departDelay="57.55" arrival="309.00" arrivalLane="HJN_ZC_0" arrivalPos="113.19" arrivalSpeed="17.88" duration="191.00" routeLength="3580.61" waitingTime="0.00" waitingCount="0" stopTime="0.00" timeLoss="78.45" rerouteNo="1" devices="tripinfo_xiaokeche_houjienan_chu.25 routing_xiaokeche_houjienan_chu.25" vType="xiaokeche" speedFactor="1.10" vaporized=""/>
    <tripinfo id="xiaokeche_houjienan_ru.9" depart="23.00" departLane="HJN_ZR2_1" departPos="409.49" departSpeed="0.00" departDelay="1.24" arrival="310.00" arrivalLane="mainlane_16_1" arrivalPos="997.88" arrivalSpeed="32.65" duration="287.00" routeLength="7556.22" waitingTime="0.00" waitingCount="0" stopTime="0.00" timeLoss="48.81" rerouteNo="1" devices="tripinfo_xiaokeche_houjienan_ru.9 routing_xiaokeche_houjienan_ru.9" vType="xiaokeche" speedFactor="1.02" vaporized=""/>
    <tripinfo id="zhongxinghuoche_houjienan_ru.0" depart="0.00" departLane="HJN_ZR2_0" departPos="329.89" departSpeed="0.00" departDelay="0.00" arrival="311.00" arrivalLane="mainlane_16_0" arrivalPos="997.88" arrivalSpeed="27.75" duration="311.00" routeLength="7635.82" waitingTime="0.00" waitingCount="0" stopTime="0.00" timeLoss="24.89" rerouteNo="1" devices="tripinfo_zhongxinghuoche_houjienan_ru.0 routing_zhongxinghuoche_houjienan_ru.0" vType="zhongxinghuoche" speedFactor="1.02" vaporized=""/>
    <tripinfo id="xiaokeche_houjienan_chu.27" depart="126.00" departLane="mainlane01_2" departPos="136.00" departSpeed="0.00" departDelay="60.71" arrival="311.00" arrivalLane="HJN_ZC_0" arrivalPos="113.19" arrivalSpeed="17.19" duration="185.00" routeLength="3532.57" waitingTime="0.00" waitingCount="0" stopTime="0.00" timeLoss="73.73" rerouteNo="1" devices="tripinfo_xiaokeche_houjienan_chu.27 routing_xiaokeche_houjienan_chu.27" vType="xiaokeche" speedFactor="1.10" vaporized=""/>
    <tripinfo id="xiaokeche_houjienan_chu.32" depart="148.00" departLane="mainlane01_3" departPos="2.95" departSpeed="0.00" departDelay="70.62" arrival="317.00" arrivalLane="HJN_ZC_0" arrivalPos="113.19" arrivalSpeed="17.39" duration="169.00" routeLength="3665.62" waitingTime="0.00" waitingCount="0" stopTime="0.00" timeLoss="53.39" rerouteNo="1" devices="tripinfo_xiaokeche_houjienan_chu.32 routing_xiaokeche_houjienan_chu.32" vType="xiaokeche" speedFactor="1.09" vaporized=""/>
    <tripinfo id="tedaxinghuoche_houjienan_ru.0" depart="0.00" departLane="HJN_ZR2_0" departPos="297.97" departSpeed="0.00" departDelay="0.00" arrival="319.00" arrivalLane="mainlane_16_0" arrivalPos="997.88" arrivalSpeed="27.28" duration="319.00" routeLength="7667.74" waitingTime="0.00" waitingCount="0" stopTime="0.00" timeLoss="30.02" rerouteNo="1" devices="tripinfo_tedaxinghuoche_houjienan_ru.0 routing_tedaxinghuoche_houjienan_ru.0" vType="tedaxinghuoche" speedFactor="1.00" vaporized=""/>