<?xml version="1.0" encoding="UTF-8"?>

<!-- generated on 11/24/21 16:55:10 by Eclipse SUMO GUI Version 1.8.0
<configuration xmlns:xsi="http://www.w3.org/2001/XMLSchema-instance" xsi:noNamespaceSchemaLocation="http://sumo.dlr.de/xsd/sumoConfiguration.xsd">

    <input>
        <net-file value="F:\sumo_pro\traci_main\test1/test.net.xml"/>
        <route-files value="F:\sumo_pro\traci_main\test1/routes1.rou.xml"/>
    </input>

    <output>
        <tripinfo-output value="F:\sumo_pro\traci_main\test1/tripinfo2_TEST.xml"/>
    </output>

    <time>
        <begin value="0"/>
        <end value="20000"/>
    </time>

    <processing>
        <lateral-resolution value="0.5"/>
    </processing>

    <report>
        <verbose value="true"/>
        <duration-log.statistics value="true"/>
    </report>

    <traci_server>
        <remote-port value="54386"/>
    </traci_server>

    <gui_only>
        <gui-settings-file value="F:\sumo_pro\traci_main\test1/gui-settings2.cfg"/>
        <quit-on-end value="true"/>
        <start value="true"/>
    </gui_only>

</configuration>
-->

<tripinfos xmlns:xsi="http://www.w3.org/2001/XMLSchema-instance" xsi:noNamespaceSchemaLocation="http://sumo.dlr.de/xsd/tripinfo_file.xsd">
    <tripinfo id="xiaokeche_mainlane3_.0" depart="0.00" departLane="main0_3" departPos="4.10" departPosLat="0.00" departSpeed="0.00" departDelay="0.00" arrival="32.00" arrivalLane="main1_3" arrivalPos="300.00" arrivalPosLat="0.00" arrivalSpeed="13.27" duration="32.00" routeLength="396.00" waitingTime="0.00" waitingCount="0" stopTime="0.00" timeLoss="4.24" rerouteNo="0" devices="tripinfo_xiaokeche_mainlane3_.0 routing_xiaokeche_mainlane3_.0" vType="xiaokeche" speedFactor="1.04" vaporized=""/>
    <tripinfo id="xiaokeche_mainlane2_.0" depart="0.00" departLane="main0_2" departPos="4.10" departPosLat="0.00" departSpeed="0.00" departDelay="0.00" arrival="33.00" arrivalLane="main1_1" arrivalPos="300.00" arrivalPosLat="1.63" arrivalSpeed="12.80" duration="33.00" routeLength="396.00" waitingTime="0.00" waitingCount="0" stopTime="0.00" timeLoss="4.08" rerouteNo="0" devices="tripinfo_xiaokeche_mainlane2_.0 routing_xiaokeche_mainlane2_.0" vType="xiaokeche" speedFactor="1.01" vaporized=""/>
    <tripinfo id="xiaokeche_mainlane4_.0" depart="0.00" departLane="main0_4" departPos="4.10" departPosLat="0.00" departSpeed="0.00" departDelay="0.00" arrival="33.00" arrivalLane="main1_4" arrivalPos="300.00" arrivalPosLat="0.00" arrivalSpeed="13.78" duration="33.00" routeLength="396.00" waitingTime="0.00" waitingCount="0" stopTime="0.00" timeLoss="4.49" rerouteNo="0" devices="tripinfo_xiaokeche_mainlane4_.0 routing_xiaokeche_mainlane4_.0" vType="xiaokeche" speedFactor="1.02" vaporized=""/>
    <tripinfo id="xiaokeche_mainlane1_.0" depart="0.00" departLane="main0_1" departPos="4.10" departPosLat="0.00" departSpeed="0.00" departDelay="0.00" arrival="34.00" arrivalLane="main1_0" arrivalPos="300.00" arrivalPosLat="0.00" arrivalSpeed="12.64" duration="34.00" routeLength="396.00" waitingTime="0.00" waitingCount="0" stopTime="0.00" timeLoss="3.90" rerouteNo="0" devices="tripinfo_xiaokeche_mainlane1_.0 routing_xiaokeche_mainlane1_.0" vType="xiaokeche" speedFactor="0.97" vaporized=""/>
    <tripinfo id="xiaokeche_mainlane0_.0" depart="0.00" departLane="main0_0" departPos="4.10" departPosLat="0.00" departSpeed="0.00" departDelay="0.00" arrival="35.00" arrivalLane="main1_4" arrivalPos="300.00" arrivalPosLat="0.00" arrivalSpeed="13.79" duration="35.00" routeLength="396.00" waitingTime="0.00" waitingCount="0" stopTime="0.00" timeLoss="6.64" rerouteNo="0" devices="tripinfo_xiaokeche_mainlane0_.0 routing_xiaokeche_mainlane0_.0" vType="xiaokeche" speedFactor="1.03" vaporized=""/>
    <tripinfo id="xiaokeche_mainlane1_.1" depart="3.00" departLane="main0_1" departPos="4.10" departPosLat="0.00" departSpeed="0.00" departDelay="0.60" arrival="36.00" arrivalLane="main1_1" arrivalPos="300.00" arrivalPosLat="0.00" arrivalSpeed="14.14" duration="33.00" routeLength="396.00" waitingTime="0.00" waitingCount="0" stopTime="0.00" timeLoss="4.42" rerouteNo="0" devices="tripinfo_xiaokeche_mainlane1_.1 routing_xiaokeche_mainlane1_.1" vType="xiaokeche" speedFactor="1.02" vaporized=""/>
    <tripinfo id="xiaokeche_mainlane3_.1" depart="3.00" departLane="main0_3" departPos="4.10" departPosLat="0.00" departSpeed="0.00" departDelay="0.60" arrival="38.00" arrivalLane="main1_1" arrivalPos="300.00" arrivalPosLat="0.25" arrivalSpeed="12.68" duration="35.00" routeLength="396.00" waitingTime="0.00" waitingCount="0" stopTime="0.00" timeLoss="4.69" rerouteNo="0" devices="tripinfo_xiaokeche_mainlane3_.1 routing_xiaokeche_mainlane3_.1" vType="xiaokeche" speedFactor="0.97" vaporized=""/>
    <tripinfo id="xiaokeche_mainlane2_.1" depart="3.00" departLane="main0_2" departPos="4.10" departPosLat="0.00" departSpeed="0.00" departDelay="0.60" arrival="39.00" arrivalLane="main1_0" arrivalPos="300.00" arrivalPosLat="1.00" arrivalSpeed="12.24" duration="36.00" routeLength="396.00" waitingTime="0.00" waitingCount="0" stopTime="0.00" timeLoss="4.97" rerouteNo="0" devices="tripinfo_xiaokeche_mainlane2_.1 routing_xiaokeche_mainlane2_.1" vType="xiaokeche" speedFactor="0.94" vaporized=""/>
    <tripinfo id="xiaokeche_mainlane4_.1" depart="3.00" departLane="main0_4" departPos="4.10" departPosLat="0.00" departSpeed="0.00" departDelay="0.60" arrival="39.00" arrivalLane="main1_4" arrivalPos="300.00" arrivalPosLat="0.00" arrivalSpeed="12.78" duration="36.00" routeLength="396.00" waitingTime="0.00" waitingCount="0" stopTime="0.00" timeLoss="4.56" rerouteNo="0" devices="tripinfo_xiaokeche_mainlane4_.1 routing_xiaokeche_mainlane4_.1" vType="xiaokeche" speedFactor="0.93" vaporized=""/>
    <tripinfo id="xiaokeche_mainlane3_.2" depart="6.00" departLane="main0_3" departPos="4.10" departPosLat="0.00" departSpeed="0.00" departDelay="1.20" arrival="39.00" arrivalLane="main1_3" arrivalPos="300.00" arrivalPosLat="0.00" arrivalSpeed="13.73" duration="33.00" routeLength="396.00" waitingTime="0.00" waitingCount="0" stopTime="0.00" timeLoss="5.25" rerouteNo="0" devices="tripinfo_xiaokeche_mainlane3_.2 routing_xiaokeche_mainlane3_.2" vType="xiaokeche" speedFactor="1.06" vaporized=""/>
    <tripinfo id="xiaokeche_mainlane4_.2" depart="6.00" departLane="main0_4" departPos="4.10" departPosLat="0.00" departSpeed="0.00" departDelay="1.20" arrival="40.00" arrivalLane="main1_5" arrivalPos="300.00" arrivalPosLat="0.00" arrivalSpeed="13.60" duration="34.00" routeLength="396.00" waitingTime="0.00" waitingCount="0" stopTime="0.00" timeLoss="4.68" rerouteNo="0" devices="tripinfo_xiaokeche_mainlane4_.2 routing_xiaokeche_mainlane4_.2" vType="xiaokeche" speedFactor="1.00" vaporized=""/>
    <tripinfo id="xiaokeche_mainlane4_.3" depart="8.00" departLane="main0_4" departPos="4.10" departPosLat="0.00" departSpeed="0.00" departDelay="0.80" arrival="41.00" arrivalLane="main1_5" arrivalPos="300.00" arrivalPosLat="0.00" arrivalSpeed="14.68" duration="33.00" routeLength="396.00" waitingTime="0.00" waitingCount="0" stopTime="0.00" timeLoss="6.44" rerouteNo="0" devices="tripinfo_xiaokeche_mainlane4_.3 routing_xiaokeche_mainlane4_.3" vType="xiaokeche" speedFactor="1.08" vaporized=""/>
    <tripinfo id="xiaokeche_mainlane2_.2" depart="5.00" departLane="main0_2" departPos="4.10" departPosLat="0.00" departSpeed="0.00" departDelay="0.20" arrival="42.00" arrivalLane="main1_1" arrivalPos="300.00" arrivalPosLat="1.63" arrivalSpeed="13.21" duration="37.00" routeLength="396.00" waitingTime="0.00" waitingCount="0" stopTime="0.00" timeLoss="8.95" rerouteNo="0" devices="tripinfo_xiaokeche_mainlane2_.2 routing_xiaokeche_mainlane2_.2" vType="xiaokeche" speedFactor="1.02" vaporized=""/>
    <tripinfo id="xiaokeche_mainlane0_.1" depart="3.00" departLane="main0_0" departPos="4.10" departPosLat="0.00" departSpeed="0.00" departDelay="0.60" arrival="43.00" arrivalLane="main1_4" arrivalPos="300.00" arrivalPosLat="0.00" arrivalSpeed="12.27" duration="40.00" routeLength="396.00" waitingTime="0.00" waitingCount="0" stopTime="0.00" timeLoss="8.15" rerouteNo="0" devices="tripinfo_xiaokeche_mainlane0_.1 routing_xiaokeche_mainlane0_.1" vType="xiaokeche" speedFactor="0.92" vaporized=""/>
    <tripinfo id="xiaokeche_mainlane3_.3" depart="9.00" departLane="main0_3" departPos="4.10" departPosLat="0.00" departSpeed="0.00" departDelay="1.80" arrival="44.00" arrivalLane="main1_4" arrivalPos="300.00" arrivalPosLat="0.00" arrivalSpeed="13.41" duration="35.00" routeLength="396.00" waitingTime="0.00" waitingCount="0" stopTime="0.00" timeLoss="5.46" rerouteNo="0" devices="tripinfo_xiaokeche_mainlane3_.3 routing_xiaokeche_mainlane3_.3" vType="xiaokeche" speedFactor="0.97" vaporized=""/>
    <tripinfo id="xiaokeche_mainlane0_.2" depart="6.00" departLane="main0_0" departPos="4.10" departPosLat="0.00" departSpeed="0.00" departDelay="1.20" arrival="46.00" arrivalLane="main1_4" arrivalPos="300.00" arrivalPosLat="0.00" arrivalSpeed="14.48" duration="40.00" routeLength="396.00" waitingTime="0.00" waitingCount="0" stopTime="0.00" timeLoss="12.17" rerouteNo="0" devices="tripinfo_xiaokeche_mainlane0_.2 routing_xiaokeche_mainlane0_.2" vType="xiaokeche" speedFactor="1.05" vaporized=""/>
    <tripinfo id="xiaokeche_mainlane3_.4" depart="12.00" departLane="main0_3" departPos="4.10" departPosLat="0.00" departSpeed="0.00" departDelay="2.40" arrival="48.00" arrivalLane="main1_5" arrivalPos="300.00" arrivalPosLat="0.00" arrivalSpeed="12.61" duration="36.00" routeLength="396.00" waitingTime="0.00" waitingCount="0" stopTime="0.00" timeLoss="5.06" rerouteNo="0" devices="tripinfo_xiaokeche_mainlane3_.4 routing_xiaokeche_mainlane3_.4" vType="xiaokeche" speedFactor="0.94" vaporized=""/>
    <tripinfo id="xiaokeche_mainlane4_.4" depart="11.00" departLane="main0_4" departPos="4.10" departPosLat="0.00" departSpeed="0.00" departDelay="1.40" arrival="48.00" arrivalLane="main1_2" arrivalPos="300.00" arrivalPosLat="-1.75" arrivalSpeed="12.43" duration="37.00" routeLength="396.00" waitingTime="0.00" waitingCount="0" stopTime="0.00" timeLoss="5.24" rerouteNo="0" devices="tripinfo_xiaokeche_mainlane4_.4 routing_xiaokeche_mainlane4_.4" vType="xiaokeche" speedFactor="0.91" vaporized=""/>
    <tripinfo id="xiaokeche_mainlane1_.2" depart="6.00" departLane="main0_1" departPos="4.10" departPosLat="0.00" departSpeed="0.00" departDelay="1.20" arrival="49.00" arrivalLane="main1_3" arrivalPos="300.00" arrivalPosLat="0.00" arrivalSpeed="13.92" duration="43.00" routeLength="396.00" waitingTime="1.00" waitingCount="1" stopTime="0.00" timeLoss="14.51" rerouteNo="0" devices="tripinfo_xiaokeche_mainlane1_.2 routing_xiaokeche_mainlane1_.2" vType="xiaokeche" speedFactor="1.01" vaporized=""/>
    <tripinfo id="xiaokeche_mainlane0_.3" depart="9.00" departLane="main0_0" departPos="4.10" departPosLat="0.00" departSpeed="0.00" departDelay="1.80" arrival="49.00" arrivalLane="main1_4" arrivalPos="300.00" arrivalPosLat="0.00" arrivalSpeed="12.91" duration="40.00" routeLength="396.00" waitingTime="0.00" waitingCount="0" stopTime="0.00" timeLoss="10.36" rerouteNo="0" devices="tripinfo_xiaokeche_mainlane0_.3 routing_xiaokeche_mainlane0_.3" vType="xiaokeche" speedFactor="0.96" vaporized=""/>
    <tripinfo id="xiaokeche_mainlane4_.5" depart="14.00" departLane="main0_4" departPos="4.10" departPosLat="0.00" departSpeed="0.00" departDelay="2.00" arrival="50.00" arrivalLane="main1_5" arrivalPos="300.00" arrivalPosLat="0.00" arrivalSpeed="12.89" duration="36.00" routeLength="396.00" waitingTime="0.00" waitingCount="0" stopTime="0.00" timeLoss="5.99" rerouteNo="0" devices="tripinfo_xiaokeche_mainlane4_.5 routing_xiaokeche_mainlane4_.5" vType="xiaokeche" speedFactor="0.97" vaporized=""/>
    <tripinfo id="xiaokeche_mainlane0_.4" depart="13.00" departLane="main0_0" departPos="4.10" departPosLat="0.00" departSpeed="0.00" departDelay="3.40" arrival="51.00" arrivalLane="main1_4" arrivalPos="300.00" arrivalPosLat="0.00" arrivalSpeed="13.12" duration="38.00" routeLength="396.00" waitingTime="0.00" waitingCount="0" stopTime="0.00" timeLoss="9.40" rerouteNo="0" devices="tripinfo_xiaokeche_mainlane0_.4 routing_xiaokeche_mainlane0_.4" vType="xiaokeche" speedFactor="1.01" vaporized=""/>
    <tripinfo id="xiaokeche_mainlane2_.3" depart="9.00" departLane="main0_2" departPos="4.10" departPosLat="0.00" departSpeed="0.00" departDelay="1.80" arrival="53.00" arrivalLane="main1_5" arrivalPos="300.00" arrivalPosLat="0.00" arrivalSpeed="12.40" duration="44.00" routeLength="396.00" waitingTime="1.00" waitingCount="1" stopTime="0.00" timeLoss="13.86" rerouteNo="0" devices="tripinfo_xiaokeche_mainlane2_.3 routing_xiaokeche_mainlane2_.3" vType="xiaokeche" speedFactor="0.97" vaporized=""/>
    <tripinfo id="xiaokeche_mainlane3_.5" depart="16.00" departLane="main0_3" departPos="4.10" departPosLat="0.00" departSpeed="0.00" departDelay="4.00" arrival="53.00" arrivalLane="main1_3" arrivalPos="300.00" arrivalPosLat="0.38" arrivalSpeed="13.71" duration="37.00" routeLength="396.00" waitingTime="0.00" waitingCount="0" stopTime="0.00" timeLoss="9.51" rerouteNo="0" devices="tripinfo_xiaokeche_mainlane3_.5 routing_xiaokeche_mainlane3_.5" vType="xiaokeche" speedFactor="1.07" vaporized=""/>
    <tripinfo id="xiaokeche_mainlane1_.3" depart="13.00" departLane="main0_1" departPos="4.10" departPosLat="0.00" departSpeed="0.00" departDelay="5.80" arrival="55.00" arrivalLane="main1_0" arrivalPos="300.00" arrivalPosLat="1.00" arrivalSpeed="12.89" duration="42.00" routeLength="396.00" waitingTime="1.00" waitingCount="1" stopTime="0.00" timeLoss="11.06" rerouteNo="0" devices="tripinfo_xiaokeche_mainlane1_.3 routing_xiaokeche_mainlane1_.3" vType="xiaokeche" speedFactor="0.94" vaporized=""/>
    <tripinfo id="xiaokeche_mainlane2_.4" depart="14.00" departLane="main0_2" departPos="4.10" departPosLat="0.00" departSpeed="0.00" departDelay="4.40" arrival="55.00" arrivalLane="main1_3" arrivalPos="300.00" arrivalPosLat="0.00" arrivalSpeed="13.48" duration="41.00" routeLength="396.00" waitingTime="0.00" waitingCount="0" stopTime="0.00" timeLoss="11.69" rerouteNo="0" devices="tripinfo_xiaokeche_mainlane2_.4 routing_xiaokeche_mainlane2_.4" vType="xiaokeche" speedFactor="0.99" vaporized=""/>
    <tripinfo id="xiaokeche_mainlane4_.6" depart="20.00" departLane="main0_4" departPos="4.10" departPosLat="0.00" departSpeed="0.00" departDelay="5.60" arrival="55.00" arrivalLane="main1_5" arrivalPos="300.00" arrivalPosLat="0.00" arrivalSpeed="13.65" duration="35.00" routeLength="396.00" waitingTime="0.00" waitingCount="0" stopTime="0.00" timeLoss="5.73" rerouteNo="0" devices="tripinfo_xiaokeche_mainlane4_.6 routing_xiaokeche_mainlane4_.6" vType="xiaokeche" speedFactor="1.00" vaporized=""/>
    <tripinfo id="xiaokeche_mainlane0_.5" depart="15.00" departLane="main0_0" departPos="4.10" departPosLat="0.00" departSpeed="0.00" departDelay="3.00" arrival="56.00" arrivalLane="main1_4" arrivalPos="300.00" arrivalPosLat="0.00" arrivalSpeed="12.12" duration="41.00" routeLength="396.00" waitingTime="1.00" waitingCount="1" stopTime="0.00" timeLoss="10.29" rerouteNo="0" devices="tripinfo_xiaokeche_mainlane0_.5 routing_xiaokeche_mainlane0_.5" vType="xiaokeche" speedFactor="0.94" vaporized=""/>
    <tripinfo id="xiaokeche_mainlane2_.5" depart="17.00" departLane="main0_2" departPos="4.10" departPosLat="0.00" departSpeed="0.00" departDelay="5.00" arrival="57.00" arrivalLane="main1_3" arrivalPos="300.00" arrivalPosLat="-1.63" arrivalSpeed="13.44" duration="40.00" routeLength="396.00" waitingTime="0.00" waitingCount="0" stopTime="0.00" timeLoss="9.83" rerouteNo="0" devices="tripinfo_xiaokeche_mainlane2_.5 routing_xiaokeche_mainlane2_.5" vType="xiaokeche" speedFactor="0.97" vaporized=""/>
    <tripinfo id="xiaokeche_mainlane0_.6" depart="19.00" departLane="main0_0" departPos="4.10" departPosLat="0.00" departSpeed="0.00" departDelay="4.60" arrival="58.00" arrivalLane="main1_4" arrivalPos="300.00" arrivalPosLat="0.00" arrivalSpeed="13.87" duration="39.00" routeLength="396.00" waitingTime="0.00" waitingCount="0" stopTime="0.00" timeLoss="12.10" rerouteNo="0" devices="tripinfo_xiaokeche_mainlane0_.6 routing_xiaokeche_mainlane0_.6" vType="xiaokeche" speedFactor="1.09" vaporized=""/>
    <tripinfo id="xiaokeche_mainlane0_.7" depart="21.00" departLane="main0_0" departPos="4.10" departPosLat="0.00" departSpeed="0.00" departDelay="4.20" arrival="59.00" arrivalLane="main1_4" arrivalPos="300.00" arrivalPosLat="0.00" arrivalSpeed="13.40" duration="38.00" routeLength="396.00" waitingTime="0.00" waitingCount="0" stopTime="0.00" timeLoss="9.69" rerouteNo="0" devices="tripinfo_xiaokeche_mainlane0_.7 routing_xiaokeche_mainlane0_.7" vType="xiaokeche" speedFactor="1.01" vaporized=""/>
    <tripinfo id="xiaokeche_mainlane4_.7" depart="24.00" departLane="main0_4" departPos="4.10" departPosLat="0.00" departSpeed="0.00" departDelay="7.20" arrival="59.00" arrivalLane="main1_5" arrivalPos="300.00" arrivalPosLat="0.00" arrivalSpeed="12.59" duration="35.00" routeLength="396.00" waitingTime="0.00" waitingCount="0" stopTime="0.00" timeLoss="4.68" rerouteNo="0" devices="tripinfo_xiaokeche_mainlane4_.7 routing_xiaokeche_mainlane4_.7" vType="xiaokeche" speedFactor="0.95" vaporized=""/>
    <tripinfo id="xiaokeche_mainlane1_.4" depart="17.00" departLane="main0_1" departPos="4.10" departPosLat="0.00" departSpeed="0.00" departDelay="7.40" arrival="61.00" arrivalLane="main1_4" arrivalPos="300.00" arrivalPosLat="0.00" arrivalSpeed="12.92" duration="44.00" routeLength="396.00" waitingTime="0.00" waitingCount="0" stopTime="0.00" timeLoss="15.30" rerouteNo="0" devices="tripinfo_xiaokeche_mainlane1_.4 routing_xiaokeche_mainlane1_.4" vType="xiaokeche" speedFactor="1.01" vaporized=""/>
    <tripinfo id="xiaokeche_mainlane2_.6" depart="21.00" departLane="main0_2" departPos="4.10" departPosLat="0.00" departSpeed="0.00" departDelay="6.60" arrival="61.00" arrivalLane="main1_3" arrivalPos="300.00" arrivalPosLat="0.00" arrivalSpeed="13.37" duration="40.00" routeLength="396.00" waitingTime="0.00" waitingCount="0" stopTime="0.00" timeLoss="10.78" rerouteNo="0" devices="tripinfo_xiaokeche_mainlane2_.6 routing_xiaokeche_mainlane2_.6" vType="xiaokeche" speedFactor="1.00" vaporized=""/>
    <tripinfo id="xiaokeche_mainlane3_.6" depart="20.00" departLane="main0_3" departPos="4.10" departPosLat="0.00" departSpeed="0.00" departDelay="5.60" arrival="61.00" arrivalLane="main1_5" arrivalPos="300.00" arrivalPosLat="0.00" arrivalSpeed="14.32" duration="41.00" routeLength="396.00" waitingTime="0.00" waitingCount="0" stopTime="0.00" timeLoss="13.91" rerouteNo="0" devices="tripinfo_xiaokeche_mainlane3_.6 routing_xiaokeche_mainlane3_.6" vType="xiaokeche" speedFactor="1.09" vaporized=""/>
    <tripinfo id="xiaokeche_mainlane4_.8" depart="27.00" departLane="main0_4" departPos="4.10" departPosLat="0.00" departSpeed="0.00" departDelay="7.80" arrival="62.00" arrivalLane="main1_5" arrivalPos="300.00" arrivalPosLat="0.00" arrivalSpeed="14.09" duration="35.00" routeLength="396.00" waitingTime="0.00" waitingCount="0" stopTime="0.00" timeLoss="6.83" rerouteNo="0" devices="tripinfo_xiaokeche_mainlane4_.8 routing_xiaokeche_mainlane4_.8" vType="xiaokeche" speedFactor="1.02" vaporized=""/>
    <tripinfo id="xiaokeche_mainlane0_.8" depart="24.00" departLane="main0_0" departPos="4.10" departPosLat="0.00" departSpeed="0.00" departDelay="4.80" arrival="63.00" arrivalLane="main1_4" arrivalPos="300.00" arrivalPosLat="-0.85" arrivalSpeed="12.92" duration="39.00" routeLength="396.00" waitingTime="0.00" waitingCount="0" stopTime="0.00" timeLoss="10.43" rerouteNo="0" devices="tripinfo_xiaokeche_mainlane0_.8 routing_xiaokeche_mainlane0_.8" vType="xiaokeche" speedFactor="1.02" vaporized=""/>
    <tripinfo id="xiaokeche_mainlane3_.7" depart="24.00" departLane="main0_3" departPos="4.10" departPosLat="0.00" departSpeed="0.00" departDelay="7.20" arrival="64.00" arrivalLane="main1_2" arrivalPos="300.00" arrivalPosLat="0.00" arrivalSpeed="13.60" duration="40.00" routeLength="396.00" waitingTime="0.00" waitingCount="0" stopTime="0.00" timeLoss="12.31" rerouteNo="0" devices="tripinfo_xiaokeche_mainlane3_.7 routing_xiaokeche_mainlane3_.7" vType="xiaokeche" speedFactor="1.05" vaporized=""/>
    <tripinfo id="xiaokeche_mainlane3_.8" depart="28.00" departLane="main0_3" departPos="4.10" departPosLat="0.00" departSpeed="0.00" departDelay="8.80" arrival="64.00" arrivalLane="main1_5" arrivalPos="300.00" arrivalPosLat="0.00" arrivalSpeed="13.95" duration="36.00" routeLength="396.00" waitingTime="0.00" waitingCount="0" stopTime="0.00" timeLoss="7.76" rerouteNo="0" devices="tripinfo_xiaokeche_mainlane3_.8 routing_xiaokeche_mainlane3_.8" vType="xiaokeche" speedFactor="1.02" vaporized=""/>
    <tripinfo id="xiaokeche_mainlane2_.7" depart="25.00" departLane="main0_2" departPos="4.10" departPosLat="0.00" departSpeed="0.00" departDelay="8.20" arrival="66.00" arrivalLane="main1_3" arrivalPos="300.00" arrivalPosLat="0.87" arrivalSpeed="14.47" duration="41.00" routeLength="396.00" waitingTime="0.00" waitingCount="0" stopTime="0.00" timeLoss="14.25" rerouteNo="0" devices="tripinfo_xiaokeche_mainlane2_.7 routing_xiaokeche_mainlane2_.7" vType="xiaokeche" speedFactor="1.09" vaporized=""/>
    <tripinfo id="xiaokeche_mainlane0_.9" depart="27.00" departLane="main0_0" departPos="4.10" departPosLat="0.00" departSpeed="0.00" departDelay="5.40" arrival="66.00" arrivalLane="main1_4" arrivalPos="300.00" arrivalPosLat="0.00" arrivalSpeed="14.25" duration="39.00" routeLength="396.00" waitingTime="0.00" waitingCount="0" stopTime="0.00" timeLoss="10.98" rerouteNo="0" devices="tripinfo_xiaokeche_mainlane0_.9 routing_xiaokeche_mainlane0_.9" vType="xiaokeche" speedFactor="1.04" vaporized=""/>
    <tripinfo id="xiaokeche_mainlane2_.8" depart="28.00" departLane="main0_2" departPos="4.10" departPosLat="0.00" departSpeed="0.00" departDelay="8.80" arrival="67.00" arrivalLane="main1_1" arrivalPos="300.00" arrivalPosLat="-1.00" arrivalSpeed="14.20" duration="39.00" routeLength="396.00" waitingTime="0.00" waitingCount="0" stopTime="0.00" timeLoss="11.16" rerouteNo="0" devices="tripinfo_xiaokeche_mainlane2_.8 routing_xiaokeche_mainlane2_.8" vType="xiaokeche" speedFactor="1.05" vaporized=""/>
    <tripinfo id="xiaokeche_mainlane1_.6" depart="26.00" departLane="main0_1" departPos="4.10" departPosLat="0.00" departSpeed="0.00" departDelay="11.60" arrival="68.00" arrivalLane="main1_0" arrivalPos="300.00" arrivalPosLat="1.00" arrivalSpeed="14.96" duration="42.00" routeLength="396.00" waitingTime="0.00" waitingCount="0" stopTime="0.00" timeLoss="15.38" rerouteNo="0" devices="tripinfo_xiaokeche_mainlane1_.6 routing_xiaokeche_mainlane1_.6" vType="xiaokeche" speedFactor="1.08" vaporized=""/>
    <tripinfo id="xiaokeche_mainlane4_.9" depart="32.00" departLane="main0_4" departPos="4.10" departPosLat="0.00" departSpeed="0.00" departDelay="10.40" arrival="68.00" arrivalLane="main1_5" arrivalPos="300.00" arrivalPosLat="0.00" arrivalSpeed="12.39" duration="36.00" routeLength="396.00" waitingTime="0.00" waitingCount="0" stopTime="0.00" timeLoss="5.01" rerouteNo="0" devices="tripinfo_xiaokeche_mainlane4_.9 routing_xiaokeche_mainlane4_.9" vType="xiaokeche" speedFactor="0.93" vaporized=""/>
    <tripinfo id="xiaokeche_mainlane4_.10" depart="35.00" departLane="main0_4" departPos="4.10" departPosLat="0.00" departSpeed="0.00" departDelay="11.00" arrival="68.00" arrivalLane="main1_4" arrivalPos="300.00" arrivalPosLat="0.00" arrivalSpeed="13.76" duration="33.00" routeLength="396.00" waitingTime="0.00" waitingCount="0" stopTime="0.00" timeLoss="4.25" rerouteNo="0" devices="tripinfo_xiaokeche_mainlane4_.10 routing_xiaokeche_mainlane4_.10" vType="xiaokeche" speedFactor="1.00" vaporized=""/>
    <tripinfo id="xiaokeche_mainlane3_.9" depart="31.00" departLane="main0_3" departPos="4.10" departPosLat="0.00" departSpeed="0.00" departDelay="9.40" arrival="70.00" arrivalLane="main1_1" arrivalPos="300.00" arrivalPosLat="0.00" arrivalSpeed="12.69" duration="39.00" routeLength="396.00" waitingTime="0.00" waitingCount="0" stopTime="0.00" timeLoss="8.03" rerouteNo="0" devices="tripinfo_xiaokeche_mainlane3_.9 routing_xiaokeche_mainlane3_.9" vType="xiaokeche" speedFactor="0.94" vaporized=""/>
    <tripinfo id="xiaokeche_mainlane1_.8" depart="34.00" departLane="main0_1" departPos="4.10" departPosLat="0.00" departSpeed="0.00" departDelay="14.80" arrival="71.00" arrivalLane="main1_0" arrivalPos="300.00" arrivalPosLat="0.00" arrivalSpeed="13.05" duration="37.00" routeLength="396.00" waitingTime="0.00" waitingCount="0" stopTime="0.00" timeLoss="7.69" rerouteNo="0" devices="tripinfo_xiaokeche_mainlane1_.8 routing_xiaokeche_mainlane1_.8" vType="xiaokeche" speedFactor="0.98" vaporized=""/>
    <tripinfo id="xiaokeche_mainlane1_.5" depart="22.00" departLane="main0_1" departPos="4.10" departPosLat="0.00" departSpeed="0.00" departDelay="10.00" arrival="72.00" arrivalLane="main1_1" arrivalPos="300.00" arrivalPosLat="0.00" arrivalSpeed="12.76" duration="50.00" routeLength="396.00" waitingTime="1.00" waitingCount="1" stopTime="0.00" timeLoss="19.33" rerouteNo="0" devices="tripinfo_xiaokeche_mainlane1_.5 routing_xiaokeche_mainlane1_.5" vType="xiaokeche" speedFactor="0.96" vaporized=""/>
    <tripinfo id="xiaokeche_mainlane1_.7" depart="29.00" departLane="main0_1" departPos="4.10" departPosLat="0.00" departSpeed="0.00" departDelay="12.20" arrival="72.00" arrivalLane="main1_2" arrivalPos="300.00" arrivalPosLat="0.75" arrivalSpeed="13.10" duration="43.00" routeLength="396.00" waitingTime="1.00" waitingCount="1" stopTime="0.00" timeLoss="14.00" rerouteNo="0" devices="tripinfo_xiaokeche_mainlane1_.7 routing_xiaokeche_mainlane1_.7" vType="xiaokeche" speedFactor="0.99" vaporized=""/>
    <tripinfo id="xiaokeche_mainlane0_.10" depart="30.00" departLane="main0_0" departPos="4.10" departPosLat="0.00" departSpeed="0.00" departDelay="6.00" arrival="72.00" arrivalLane="main1_4" arrivalPos="300.00" arrivalPosLat="-1.25" arrivalSpeed="11.99" duration="42.00" routeLength="396.00" waitingTime="0.00" waitingCount="0" stopTime="0.00" timeLoss="10.59" rerouteNo="0" devices="tripinfo_xiaokeche_mainlane0_.10 routing_xiaokeche_mainlane0_.10" vType="xiaokeche" speedFactor="0.93" vaporized=""/>
    <tripinfo id="xiaokeche_mainlane3_.10" depart="34.00" departLane="main0_3" departPos="4.10" departPosLat="0.00" departSpeed="0.00" departDelay="10.00" arrival="72.00" arrivalLane="main1_4" arrivalPos="300.00" arrivalPosLat="1.00" arrivalSpeed="13.48" duration="38.00" routeLength="396.00" waitingTime="0.00" waitingCount="0" stopTime="0.00" timeLoss="10.21" rerouteNo="0" devices="tripinfo_xiaokeche_mainlane3_.10 routing_xiaokeche_mainlane3_.10" vType="xiaokeche" speedFactor="1.05" vaporized=""/>
    <tripinfo id="xiaokeche_mainlane3_.11" depart="39.00" departLane="main0_3" departPos="4.10" departPosLat="0.00" departSpeed="0.00" departDelay="12.60" arrival="72.00" arrivalLane="main1_3" arrivalPos="300.00" arrivalPosLat="0.00" arrivalSpeed="13.02" duration="33.00" routeLength="396.00" waitingTime="0.00" waitingCount="0" stopTime="0.00" timeLoss="4.66" rerouteNo="0" devices="tripinfo_xiaokeche_mainlane3_.11 routing_xiaokeche_mainlane3_.11" vType="xiaokeche" speedFactor="1.01" vaporized=""/>
    <tripinfo id="xiaokeche_mainlane4_.11" depart="38.00" departLane="main0_4" departPos="4.10" departPosLat="0.00" departSpeed="0.00" departDelay="11.60" arrival="72.00" arrivalLane="main1_5" arrivalPos="300.00" arrivalPosLat="0.00" arrivalSpeed="12.88" duration="34.00" routeLength="396.00" waitingTime="0.00" waitingCount="0" stopTime="0.00" timeLoss="4.12" rerouteNo="0" devices="tripinfo_xiaokeche_mainlane4_.11 routing_xiaokeche_mainlane4_.11" vType="xiaokeche" speedFactor="0.98" vaporized=""/>
    <tripinfo id="xiaokeche_mainlane1_.9" depart="36.00" departLane="main0_1" departPos="4.10" departPosLat="0.00" departSpeed="0.00" departDelay="14.40" arrival="73.00" arrivalLane="main1_1" arrivalPos="300.00" arrivalPosLat="0.00" arrivalSpeed="13.54" duration="37.00" routeLength="396.00" waitingTime="1.00" waitingCount="1" stopTime="0.00" timeLoss="8.13" rerouteNo="0" devices="tripinfo_xiaokeche_mainlane1_.9 routing_xiaokeche_mainlane1_.9" vType="xiaokeche" speedFactor="1.00" vaporized=""/>
    <tripinfo id="xiaokeche_mainlane2_.9" depart="34.00" departLane="main0_2" departPos="4.10" departPosLat="0.00" departSpeed="0.00" departDelay="12.40" arrival="75.00" arrivalLane="main1_2" arrivalPos="300.00" arrivalPosLat="0.00" arrivalSpeed="12.56" duration="41.00" routeLength="396.00" waitingTime="0.00" waitingCount="0" stopTime="0.00" timeLoss="10.43" rerouteNo="0" devices="tripinfo_xiaokeche_mainlane2_.9 routing_xiaokeche_mainlane2_.9" vType="xiaokeche" speedFactor="0.95" vaporized=""/>
    <tripinfo id="xiaokeche_mainlane0_.11" depart="34.00" departLane="main0_0" departPos="4.10" departPosLat="0.00" departSpeed="0.00" departDelay="7.60" arrival="75.00" arrivalLane="main1_4" arrivalPos="300.00" arrivalPosLat="0.00" arrivalSpeed="12.63" duration="41.00" routeLength="396.00" waitingTime="0.00" waitingCount="0" stopTime="0.00" timeLoss="12.02" rerouteNo="0" devices="tripinfo_xiaokeche_mainlane0_.11 routing_xiaokeche_mainlane0_.11" vType="xiaokeche" speedFactor="1.00" vaporized=""/>
    <tripinfo id="xiaokeche_mainlane4_.12" depart="40.00" departLane="main0_4" departPos="4.10" departPosLat="0.00" departSpeed="0.00" departDelay="11.20" arrival="75.00" arrivalLane="main1_5" arrivalPos="300.00" arrivalPosLat="0.00" arrivalSpeed="12.73" duration="35.00" routeLength="396.00" waitingTime="0.00" waitingCount="0" stopTime="0.00" timeLoss="5.24" rerouteNo="0" devices="tripinfo_xiaokeche_mainlane4_.12 routing_xiaokeche_mainlane4_.12" vType="xiaokeche" speedFactor="0.97" vaporized=""/>