<?xml version="1.0" encoding="UTF-8"?>

<!-- generated on 11/11/21 20:59:10 by Eclipse SUMO GUI Version 1.8.0
<configuration xmlns:xsi="http://www.w3.org/2001/XMLSchema-instance" xsi:noNamespaceSchemaLocation="http://sumo.dlr.de/xsd/sumoConfiguration.xsd">

    <input>
        <net-file value="F:\sumo_pro\traci_main\test1/test.net.xml"/>
        <route-files value="F:\sumo_pro\traci_main\test1/routes1.rou.xml"/>
    </input>

    <output>
        <tripinfo-output value="F:\sumo_pro\traci_main\test1/tripinfo2_TEST.xml"/>
    </output>

    <time>
        <begin value="0"/>
        <end value="20000"/>
    </time>

    <report>
        <verbose value="true"/>
        <duration-log.statistics value="true"/>
    </report>

    <traci_server>
        <remote-port value="56797"/>
    </traci_server>

    <gui_only>
        <gui-settings-file value="F:\sumo_pro\traci_main\test1/gui-settings2.cfg"/>
        <quit-on-end value="true"/>
        <start value="true"/>
    </gui_only>

</configuration>
-->

<tripinfos xmlns:xsi="http://www.w3.org/2001/XMLSchema-instance" xsi:noNamespaceSchemaLocation="http://sumo.dlr.de/xsd/tripinfo_file.xsd">
    <tripinfo id="xiaokeche_mainlane0_.0" depart="0.00" departLane="main0_0" departPos="4.10" departSpeed="0.00" departDelay="0.00" arrival="32.00" arrivalLane="main1_0" arrivalPos="300.00" arrivalSpeed="14.09" duration="32.00" routeLength="396.00" waitingTime="0.00" waitingCount="0" stopTime="0.00" timeLoss="4.06" rerouteNo="0" devices="tripinfo_xiaokeche_mainlane0_.0 routing_xiaokeche_mainlane0_.0" vType="xiaokeche" speedFactor="1.03" vaporized=""/>
    <tripinfo id="xiaokeche_mainlane3_.0" depart="0.00" departLane="main0_3" departPos="4.10" departSpeed="0.00" departDelay="0.00" arrival="32.00" arrivalLane="main1_3" arrivalPos="300.00" arrivalSpeed="13.81" duration="32.00" routeLength="396.00" waitingTime="0.00" waitingCount="0" stopTime="0.00" timeLoss="4.12" rerouteNo="0" devices="tripinfo_xiaokeche_mainlane3_.0 routing_xiaokeche_mainlane3_.0" vType="xiaokeche" speedFactor="1.04" vaporized=""/>
    <tripinfo id="xiaokeche_mainlane2_.0" depart="0.00" departLane="main0_2" departPos="4.10" departSpeed="0.00" departDelay="0.00" arrival="33.00" arrivalLane="main1_2" arrivalPos="300.00" arrivalSpeed="12.99" duration="33.00" routeLength="396.00" waitingTime="0.00" waitingCount="0" stopTime="0.00" timeLoss="3.95" rerouteNo="0" devices="tripinfo_xiaokeche_mainlane2_.0 routing_xiaokeche_mainlane2_.0" vType="xiaokeche" speedFactor="1.01" vaporized=""/>
    <tripinfo id="xiaokeche_mainlane4_.0" depart="0.00" departLane="main0_4" departPos="4.10" departSpeed="0.00" departDelay="0.00" arrival="33.00" arrivalLane="main1_4" arrivalPos="300.00" arrivalSpeed="13.78" duration="33.00" routeLength="396.00" waitingTime="0.00" waitingCount="0" stopTime="0.00" timeLoss="4.44" rerouteNo="0" devices="tripinfo_xiaokeche_mainlane4_.0 routing_xiaokeche_mainlane4_.0" vType="xiaokeche" speedFactor="1.02" vaporized=""/>
    <tripinfo id="xiaokeche_mainlane1_.0" depart="0.00" departLane="main0_1" departPos="4.10" departSpeed="0.00" departDelay="0.00" arrival="34.00" arrivalLane="main1_0" arrivalPos="300.00" arrivalSpeed="12.24" duration="34.00" routeLength="396.00" waitingTime="0.00" waitingCount="0" stopTime="0.00" timeLoss="3.70" rerouteNo="0" devices="tripinfo_xiaokeche_mainlane1_.0 routing_xiaokeche_mainlane1_.0" vType="xiaokeche" speedFactor="0.97" vaporized=""/>
    <tripinfo id="xiaokeche_mainlane1_.1" depart="3.00" departLane="main0_1" departPos="4.10" departSpeed="0.00" departDelay="0.60" arrival="35.00" arrivalLane="main1_0" arrivalPos="300.00" arrivalSpeed="13.87" duration="32.00" routeLength="396.00" waitingTime="0.00" waitingCount="0" stopTime="0.00" timeLoss="3.90" rerouteNo="0" devices="tripinfo_xiaokeche_mainlane1_.1 routing_xiaokeche_mainlane1_.1" vType="xiaokeche" speedFactor="1.02" vaporized=""/>
    <tripinfo id="xiaokeche_mainlane2_.1" depart="3.00" departLane="main0_2" departPos="4.10" departSpeed="0.00" departDelay="0.60" arrival="38.00" arrivalLane="main1_1" arrivalPos="300.00" arrivalSpeed="13.06" duration="35.00" routeLength="396.00" waitingTime="0.00" waitingCount="0" stopTime="0.00" timeLoss="4.16" rerouteNo="0" devices="tripinfo_xiaokeche_mainlane2_.1 routing_xiaokeche_mainlane2_.1" vType="xiaokeche" speedFactor="0.94" vaporized=""/>
    <tripinfo id="xiaokeche_mainlane3_.1" depart="3.00" departLane="main0_3" departPos="4.10" departSpeed="0.00" departDelay="0.60" arrival="38.00" arrivalLane="main1_3" arrivalPos="300.00" arrivalSpeed="12.24" duration="35.00" routeLength="396.00" waitingTime="0.00" waitingCount="0" stopTime="0.00" timeLoss="4.70" rerouteNo="0" devices="tripinfo_xiaokeche_mainlane3_.1 routing_xiaokeche_mainlane3_.1" vType="xiaokeche" speedFactor="0.97" vaporized=""/>
    <tripinfo id="xiaokeche_mainlane0_.1" depart="3.00" departLane="main0_0" departPos="4.10" departSpeed="0.00" departDelay="0.60" arrival="39.00" arrivalLane="main1_0" arrivalPos="300.00" arrivalSpeed="12.46" duration="36.00" routeLength="396.00" waitingTime="0.00" waitingCount="0" stopTime="0.00" timeLoss="4.39" rerouteNo="0" devices="tripinfo_xiaokeche_mainlane0_.1 routing_xiaokeche_mainlane0_.1" vType="xiaokeche" speedFactor="0.92" vaporized=""/>
    <tripinfo id="xiaokeche_mainlane4_.1" depart="3.00" departLane="main0_4" departPos="4.10" departSpeed="0.00" departDelay="0.60" arrival="39.00" arrivalLane="main1_4" arrivalPos="300.00" arrivalSpeed="12.14" duration="36.00" routeLength="396.00" waitingTime="0.00" waitingCount="0" stopTime="0.00" timeLoss="4.66" rerouteNo="0" devices="tripinfo_xiaokeche_mainlane4_.1 routing_xiaokeche_mainlane4_.1" vType="xiaokeche" speedFactor="0.93" vaporized=""/>
    <tripinfo id="xiaokeche_mainlane2_.2" depart="5.00" departLane="main0_2" departPos="4.10" departSpeed="0.00" departDelay="0.20" arrival="39.00" arrivalLane="main1_2" arrivalPos="300.00" arrivalSpeed="13.74" duration="34.00" routeLength="396.00" waitingTime="0.00" waitingCount="0" stopTime="0.00" timeLoss="6.05" rerouteNo="0" devices="tripinfo_xiaokeche_mainlane2_.2 routing_xiaokeche_mainlane2_.2" vType="xiaokeche" speedFactor="1.02" vaporized=""/>
    <tripinfo id="xiaokeche_mainlane3_.2" depart="6.00" departLane="main0_3" departPos="4.10" departSpeed="0.00" departDelay="1.20" arrival="39.00" arrivalLane="main1_3" arrivalPos="300.00" arrivalSpeed="14.37" duration="33.00" routeLength="396.00" waitingTime="0.00" waitingCount="0" stopTime="0.00" timeLoss="5.77" rerouteNo="0" devices="tripinfo_xiaokeche_mainlane3_.2 routing_xiaokeche_mainlane3_.2" vType="xiaokeche" speedFactor="1.06" vaporized=""/>
    <tripinfo id="xiaokeche_mainlane1_.2" depart="6.00" departLane="main0_1" departPos="4.10" departSpeed="0.00" departDelay="1.20" arrival="40.00" arrivalLane="main1_1" arrivalPos="300.00" arrivalSpeed="13.12" duration="34.00" routeLength="396.00" waitingTime="0.00" waitingCount="0" stopTime="0.00" timeLoss="4.94" rerouteNo="0" devices="tripinfo_xiaokeche_mainlane1_.2 routing_xiaokeche_mainlane1_.2" vType="xiaokeche" speedFactor="1.01" vaporized=""/>
    <tripinfo id="xiaokeche_mainlane4_.2" depart="6.00" departLane="main0_4" departPos="4.10" departSpeed="0.00" departDelay="1.20" arrival="40.00" arrivalLane="main1_4" arrivalPos="300.00" arrivalSpeed="12.63" duration="34.00" routeLength="396.00" waitingTime="0.00" waitingCount="0" stopTime="0.00" timeLoss="5.29" rerouteNo="0" devices="tripinfo_xiaokeche_mainlane4_.2 routing_xiaokeche_mainlane4_.2" vType="xiaokeche" speedFactor="1.00" vaporized=""/>
    <tripinfo id="xiaokeche_mainlane0_.2" depart="6.00" departLane="main0_0" departPos="4.10" departSpeed="0.00" departDelay="1.20" arrival="41.00" arrivalLane="main1_0" arrivalPos="300.00" arrivalSpeed="13.76" duration="35.00" routeLength="396.00" waitingTime="0.00" waitingCount="0" stopTime="0.00" timeLoss="6.94" rerouteNo="0" devices="tripinfo_xiaokeche_mainlane0_.2 routing_xiaokeche_mainlane0_.2" vType="xiaokeche" speedFactor="1.05" vaporized=""/>
    <tripinfo id="xiaokeche_mainlane4_.3" depart="8.00" departLane="main0_4" departPos="4.10" departSpeed="0.00" departDelay="0.80" arrival="42.00" arrivalLane="main1_4" arrivalPos="300.00" arrivalSpeed="14.61" duration="34.00" routeLength="396.00" waitingTime="0.00" waitingCount="0" stopTime="0.00" timeLoss="6.92" rerouteNo="0" devices="tripinfo_xiaokeche_mainlane4_.3 routing_xiaokeche_mainlane4_.3" vType="xiaokeche" speedFactor="1.08" vaporized=""/>
    <tripinfo id="xiaokeche_mainlane0_.3" depart="9.00" departLane="main0_0" departPos="4.10" departSpeed="0.00" departDelay="1.80" arrival="43.00" arrivalLane="main1_0" arrivalPos="300.00" arrivalSpeed="13.35" duration="34.00" routeLength="396.00" waitingTime="0.00" waitingCount="0" stopTime="0.00" timeLoss="3.77" rerouteNo="0" devices="tripinfo_xiaokeche_mainlane0_.3 routing_xiaokeche_mainlane0_.3" vType="xiaokeche" speedFactor="0.96" vaporized=""/>
    <tripinfo id="xiaokeche_mainlane2_.3" depart="9.00" departLane="main0_2" departPos="4.10" departSpeed="0.00" departDelay="1.80" arrival="43.00" arrivalLane="main1_1" arrivalPos="300.00" arrivalSpeed="12.53" duration="34.00" routeLength="396.00" waitingTime="0.00" waitingCount="0" stopTime="0.00" timeLoss="4.18" rerouteNo="0" devices="tripinfo_xiaokeche_mainlane2_.3 routing_xiaokeche_mainlane2_.3" vType="xiaokeche" speedFactor="0.97" vaporized=""/>
    <tripinfo id="xiaokeche_mainlane3_.3" depart="9.00" departLane="main0_3" departPos="4.10" departSpeed="0.00" departDelay="1.80" arrival="43.00" arrivalLane="main1_3" arrivalPos="300.00" arrivalSpeed="12.36" duration="34.00" routeLength="396.00" waitingTime="0.00" waitingCount="0" stopTime="0.00" timeLoss="4.18" rerouteNo="0" devices="tripinfo_xiaokeche_mainlane3_.3 routing_xiaokeche_mainlane3_.3" vType="xiaokeche" speedFactor="0.97" vaporized=""/>
    <tripinfo id="xiaokeche_mainlane1_.3" depart="9.00" departLane="main0_1" departPos="4.10" departSpeed="0.00" departDelay="1.80" arrival="45.00" arrivalLane="main1_1" arrivalPos="300.00" arrivalSpeed="13.02" duration="36.00" routeLength="396.00" waitingTime="0.00" waitingCount="0" stopTime="0.00" timeLoss="4.74" rerouteNo="0" devices="tripinfo_xiaokeche_mainlane1_.3 routing_xiaokeche_mainlane1_.3" vType="xiaokeche" speedFactor="0.94" vaporized=""/>
    <tripinfo id="xiaokeche_mainlane0_.4" depart="11.00" departLane="main0_0" departPos="4.10" departSpeed="0.00" departDelay="1.40" arrival="45.00" arrivalLane="main1_0" arrivalPos="300.00" arrivalSpeed="12.89" duration="34.00" routeLength="396.00" waitingTime="0.00" waitingCount="0" stopTime="0.00" timeLoss="5.14" rerouteNo="0" devices="tripinfo_xiaokeche_mainlane0_.4 routing_xiaokeche_mainlane0_.4" vType="xiaokeche" speedFactor="1.01" vaporized=""/>
    <tripinfo id="xiaokeche_mainlane1_.4" depart="12.00" departLane="main0_1" departPos="4.10" departSpeed="0.00" departDelay="2.40" arrival="46.00" arrivalLane="main1_1" arrivalPos="300.00" arrivalSpeed="13.78" duration="34.00" routeLength="396.00" waitingTime="0.00" waitingCount="0" stopTime="0.00" timeLoss="5.36" rerouteNo="0" devices="tripinfo_xiaokeche_mainlane1_.4 routing_xiaokeche_mainlane1_.4" vType="xiaokeche" speedFactor="1.01" vaporized=""/>
    <tripinfo id="xiaokeche_mainlane2_.4" depart="11.00" departLane="main0_2" departPos="4.10" departSpeed="0.00" departDelay="1.40" arrival="46.00" arrivalLane="main1_2" arrivalPos="300.00" arrivalSpeed="13.39" duration="35.00" routeLength="396.00" waitingTime="0.00" waitingCount="0" stopTime="0.00" timeLoss="5.19" rerouteNo="0" devices="tripinfo_xiaokeche_mainlane2_.4 routing_xiaokeche_mainlane2_.4" vType="xiaokeche" speedFactor="0.99" vaporized=""/>
    <tripinfo id="xiaokeche_mainlane3_.4" depart="12.00" departLane="main0_3" departPos="4.10" departSpeed="0.00" departDelay="2.40" arrival="47.00" arrivalLane="main1_3" arrivalPos="300.00" arrivalSpeed="13.10" duration="35.00" routeLength="396.00" waitingTime="0.00" waitingCount="0" stopTime="0.00" timeLoss="4.02" rerouteNo="0" devices="tripinfo_xiaokeche_mainlane3_.4 routing_xiaokeche_mainlane3_.4" vType="xiaokeche" speedFactor="0.94" vaporized=""/>
    <tripinfo id="xiaokeche_mainlane4_.4" depart="11.00" departLane="main0_4" departPos="4.10" departSpeed="0.00" departDelay="1.40" arrival="47.00" arrivalLane="main1_4" arrivalPos="300.00" arrivalSpeed="11.57" duration="36.00" routeLength="396.00" waitingTime="0.00" waitingCount="0" stopTime="0.00" timeLoss="4.25" rerouteNo="0" devices="tripinfo_xiaokeche_mainlane4_.4 routing_xiaokeche_mainlane4_.4" vType="xiaokeche" speedFactor="0.91" vaporized=""/>
    <tripinfo id="xiaokeche_mainlane3_.5" depart="15.00" departLane="main0_3" departPos="4.10" departSpeed="0.00" departDelay="3.00" arrival="48.00" arrivalLane="main1_3" arrivalPos="300.00" arrivalSpeed="13.78" duration="33.00" routeLength="396.00" waitingTime="0.00" waitingCount="0" stopTime="0.00" timeLoss="6.07" rerouteNo="0" devices="tripinfo_xiaokeche_mainlane3_.5 routing_xiaokeche_mainlane3_.5" vType="xiaokeche" speedFactor="1.07" vaporized=""/>
    <tripinfo id="xiaokeche_mainlane1_.5" depart="15.00" departLane="main0_1" departPos="4.10" departSpeed="0.00" departDelay="3.00" arrival="49.00" arrivalLane="main1_1" arrivalPos="300.00" arrivalSpeed="12.99" duration="34.00" routeLength="396.00" waitingTime="0.00" waitingCount="0" stopTime="0.00" timeLoss="3.91" rerouteNo="0" devices="tripinfo_xiaokeche_mainlane1_.5 routing_xiaokeche_mainlane1_.5" vType="xiaokeche" speedFactor="0.96" vaporized=""/>
    <tripinfo id="xiaokeche_mainlane2_.5" depart="15.00" departLane="main0_2" departPos="4.10" departSpeed="0.00" departDelay="3.00" arrival="49.00" arrivalLane="main1_2" arrivalPos="300.00" arrivalSpeed="12.92" duration="34.00" routeLength="396.00" waitingTime="0.00" waitingCount="0" stopTime="0.00" timeLoss="4.45" rerouteNo="0" devices="tripinfo_xiaokeche_mainlane2_.5 routing_xiaokeche_mainlane2_.5" vType="xiaokeche" speedFactor="0.97" vaporized=""/>
    <tripinfo id="xiaokeche_mainlane4_.5" depart="14.00" departLane="main0_4" departPos="4.10" departSpeed="0.00" departDelay="2.00" arrival="49.00" arrivalLane="main1_4" arrivalPos="300.00" arrivalSpeed="12.22" duration="35.00" routeLength="396.00" waitingTime="0.00" waitingCount="0" stopTime="0.00" timeLoss="4.95" rerouteNo="0" devices="tripinfo_xiaokeche_mainlane4_.5 routing_xiaokeche_mainlane4_.5" vType="xiaokeche" speedFactor="0.97" vaporized=""/>
    <tripinfo id="xiaokeche_mainlane0_.5" depart="14.00" departLane="main0_0" departPos="4.10" departSpeed="0.00" departDelay="2.00" arrival="50.00" arrivalLane="main1_0" arrivalPos="300.00" arrivalSpeed="12.23" duration="36.00" routeLength="396.00" waitingTime="0.00" waitingCount="0" stopTime="0.00" timeLoss="4.99" rerouteNo="0" devices="tripinfo_xiaokeche_mainlane0_.5 routing_xiaokeche_mainlane0_.5" vType="xiaokeche" speedFactor="0.94" vaporized=""/>
    <tripinfo id="xiaokeche_mainlane3_.6" depart="17.00" departLane="main0_3" departPos="4.10" departSpeed="0.00" departDelay="2.60" arrival="50.00" arrivalLane="main1_3" arrivalPos="300.00" arrivalSpeed="14.07" duration="33.00" routeLength="396.00" waitingTime="1.00" waitingCount="1" stopTime="0.00" timeLoss="6.28" rerouteNo="0" devices="tripinfo_xiaokeche_mainlane3_.6 routing_xiaokeche_mainlane3_.6" vType="xiaokeche" speedFactor="1.09" vaporized=""/>
    <tripinfo id="xiaokeche_mainlane0_.6" depart="17.00" departLane="main0_0" departPos="4.10" departSpeed="0.00" departDelay="2.60" arrival="51.00" arrivalLane="main1_0" arrivalPos="300.00" arrivalSpeed="14.25" duration="34.00" routeLength="396.00" waitingTime="0.00" waitingCount="0" stopTime="0.00" timeLoss="7.78" rerouteNo="0" devices="tripinfo_xiaokeche_mainlane0_.6 routing_xiaokeche_mainlane0_.6" vType="xiaokeche" speedFactor="1.09" vaporized=""/>
    <tripinfo id="xiaokeche_mainlane1_.6" depart="18.00" departLane="main0_1" departPos="4.10" departSpeed="0.00" departDelay="3.60" arrival="51.00" arrivalLane="main1_1" arrivalPos="300.00" arrivalSpeed="13.88" duration="33.00" routeLength="396.00" waitingTime="0.00" waitingCount="0" stopTime="0.00" timeLoss="5.72" rerouteNo="0" devices="tripinfo_xiaokeche_mainlane1_.6 routing_xiaokeche_mainlane1_.6" vType="xiaokeche" speedFactor="1.08" vaporized=""/>
    <tripinfo id="xiaokeche_mainlane4_.6" depart="17.00" departLane="main0_4" departPos="4.10" departSpeed="0.00" departDelay="2.60" arrival="51.00" arrivalLane="main1_3" arrivalPos="300.00" arrivalSpeed="13.63" duration="34.00" routeLength="396.00" waitingTime="0.00" waitingCount="0" stopTime="0.00" timeLoss="4.62" rerouteNo="0" devices="tripinfo_xiaokeche_mainlane4_.6 routing_xiaokeche_mainlane4_.6" vType="xiaokeche" speedFactor="1.00" vaporized=""/>
    <tripinfo id="xiaokeche_mainlane2_.6" depart="18.00" departLane="main0_2" departPos="4.10" departSpeed="0.00" departDelay="3.60" arrival="52.00" arrivalLane="main1_2" arrivalPos="300.00" arrivalSpeed="13.54" duration="34.00" routeLength="396.00" waitingTime="0.00" waitingCount="0" stopTime="0.00" timeLoss="4.83" rerouteNo="0" devices="tripinfo_xiaokeche_mainlane2_.6 routing_xiaokeche_mainlane2_.6" vType="xiaokeche" speedFactor="1.00" vaporized=""/>
    <tripinfo id="xiaokeche_mainlane2_.7" depart="21.00" departLane="main0_2" departPos="4.10" departSpeed="0.00" departDelay="4.20" arrival="53.00" arrivalLane="main1_2" arrivalPos="300.00" arrivalSpeed="14.21" duration="32.00" routeLength="396.00" waitingTime="0.00" waitingCount="0" stopTime="0.00" timeLoss="5.71" rerouteNo="0" devices="tripinfo_xiaokeche_mainlane2_.7 routing_xiaokeche_mainlane2_.7" vType="xiaokeche" speedFactor="1.09" vaporized=""/>
    <tripinfo id="xiaokeche_mainlane3_.7" depart="21.00" departLane="main0_3" departPos="4.10" departSpeed="0.00" departDelay="4.20" arrival="53.00" arrivalLane="main1_3" arrivalPos="300.00" arrivalSpeed="13.42" duration="32.00" routeLength="396.00" waitingTime="0.00" waitingCount="0" stopTime="0.00" timeLoss="4.39" rerouteNo="0" devices="tripinfo_xiaokeche_mainlane3_.7 routing_xiaokeche_mainlane3_.7" vType="xiaokeche" speedFactor="1.05" vaporized=""/>
    <tripinfo id="xiaokeche_mainlane0_.7" depart="20.00" departLane="main0_0" departPos="4.10" departSpeed="0.00" departDelay="3.20" arrival="54.00" arrivalLane="main1_0" arrivalPos="300.00" arrivalSpeed="13.24" duration="34.00" routeLength="396.00" waitingTime="0.00" waitingCount="0" stopTime="0.00" timeLoss="4.90" rerouteNo="0" devices="tripinfo_xiaokeche_mainlane0_.7 routing_xiaokeche_mainlane0_.7" vType="xiaokeche" speedFactor="1.01" vaporized=""/>
    <tripinfo id="xiaokeche_mainlane1_.7" depart="21.00" departLane="main0_1" departPos="4.10" departSpeed="0.00" departDelay="4.20" arrival="55.00" arrivalLane="main1_1" arrivalPos="300.00" arrivalSpeed="13.65" duration="34.00" routeLength="396.00" waitingTime="0.00" waitingCount="0" stopTime="0.00" timeLoss="4.58" rerouteNo="0" devices="tripinfo_xiaokeche_mainlane1_.7 routing_xiaokeche_mainlane1_.7" vType="xiaokeche" speedFactor="0.99" vaporized=""/>
    <tripinfo id="xiaokeche_mainlane4_.7" depart="20.00" departLane="main0_4" departPos="4.10" departSpeed="0.00" departDelay="3.20" arrival="55.00" arrivalLane="main1_3" arrivalPos="300.00" arrivalSpeed="12.17" duration="35.00" routeLength="396.00" waitingTime="0.00" waitingCount="0" stopTime="0.00" timeLoss="4.41" rerouteNo="0" devices="tripinfo_xiaokeche_mainlane4_.7 routing_xiaokeche_mainlane4_.7" vType="xiaokeche" speedFactor="0.95" vaporized=""/>
    <tripinfo id="xiaokeche_mainlane0_.8" depart="23.00" departLane="main0_0" departPos="4.10" departSpeed="0.00" departDelay="3.80" arrival="56.00" arrivalLane="main1_0" arrivalPos="300.00" arrivalSpeed="12.95" duration="33.00" routeLength="396.00" waitingTime="0.00" waitingCount="0" stopTime="0.00" timeLoss="4.41" rerouteNo="0" devices="tripinfo_xiaokeche_mainlane0_.8 routing_xiaokeche_mainlane0_.8" vType="xiaokeche" speedFactor="1.02" vaporized=""/>
    <tripinfo id="xiaokeche_mainlane4_.8" depart="23.00" departLane="main0_4" departPos="4.10" departSpeed="0.00" departDelay="3.80" arrival="56.00" arrivalLane="main1_4" arrivalPos="300.00" arrivalSpeed="13.59" duration="33.00" routeLength="396.00" waitingTime="0.00" waitingCount="0" stopTime="0.00" timeLoss="4.46" rerouteNo="0" devices="tripinfo_xiaokeche_mainlane4_.8 routing_xiaokeche_mainlane4_.8" vType="xiaokeche" speedFactor="1.02" vaporized=""/>
    <tripinfo id="xiaokeche_mainlane2_.8" depart="24.00" departLane="main0_2" departPos="4.10" departSpeed="0.00" departDelay="4.80" arrival="57.00" arrivalLane="main1_2" arrivalPos="300.00" arrivalSpeed="14.08" duration="33.00" routeLength="396.00" waitingTime="0.00" waitingCount="0" stopTime="0.00" timeLoss="5.07" rerouteNo="0" devices="tripinfo_xiaokeche_mainlane2_.8 routing_xiaokeche_mainlane2_.8" vType="xiaokeche" speedFactor="1.05" vaporized=""/>
    <tripinfo id="xiaokeche_mainlane3_.8" depart="24.00" departLane="main0_3" departPos="4.10" departSpeed="0.00" departDelay="4.80" arrival="57.00" arrivalLane="main1_3" arrivalPos="300.00" arrivalSpeed="13.16" duration="33.00" routeLength="396.00" waitingTime="0.00" waitingCount="0" stopTime="0.00" timeLoss="4.28" rerouteNo="0" devices="tripinfo_xiaokeche_mainlane3_.8 routing_xiaokeche_mainlane3_.8" vType="xiaokeche" speedFactor="1.02" vaporized=""/>
    <tripinfo id="xiaokeche_mainlane1_.8" depart="24.00" departLane="main0_1" departPos="4.10" departSpeed="0.00" departDelay="4.80" arrival="58.00" arrivalLane="main1_1" arrivalPos="300.00" arrivalSpeed="12.60" duration="34.00" routeLength="396.00" waitingTime="0.00" waitingCount="0" stopTime="0.00" timeLoss="4.86" rerouteNo="0" devices="tripinfo_xiaokeche_mainlane1_.8 routing_xiaokeche_mainlane1_.8" vType="xiaokeche" speedFactor="0.98" vaporized=""/>
    <tripinfo id="xiaokeche_mainlane0_.9" depart="26.00" departLane="main0_0" departPos="4.10" departSpeed="0.00" departDelay="4.40" arrival="58.00" arrivalLane="main1_0" arrivalPos="300.00" arrivalSpeed="14.20" duration="32.00" routeLength="396.00" waitingTime="0.00" waitingCount="0" stopTime="0.00" timeLoss="4.52" rerouteNo="0" devices="tripinfo_xiaokeche_mainlane0_.9 routing_xiaokeche_mainlane0_.9" vType="xiaokeche" speedFactor="1.04" vaporized=""/>
    <tripinfo id="xiaokeche_mainlane1_.9" depart="27.00" departLane="main0_1" departPos="4.10" departSpeed="0.00" departDelay="5.40" arrival="61.00" arrivalLane="main1_1" arrivalPos="300.00" arrivalSpeed="13.71" duration="34.00" routeLength="396.00" waitingTime="0.00" waitingCount="0" stopTime="0.00" timeLoss="4.52" rerouteNo="0" devices="tripinfo_xiaokeche_mainlane1_.9 routing_xiaokeche_mainlane1_.9" vType="xiaokeche" speedFactor="1.00" vaporized=""/>
    <tripinfo id="xiaokeche_mainlane4_.9" depart="26.00" departLane="main0_4" departPos="4.10" departSpeed="0.00" departDelay="4.40" arrival="61.00" arrivalLane="main1_4" arrivalPos="300.00" arrivalSpeed="11.85" duration="35.00" routeLength="396.00" waitingTime="0.00" waitingCount="0" stopTime="0.00" timeLoss="4.06" rerouteNo="0" devices="tripinfo_xiaokeche_mainlane4_.9 routing_xiaokeche_mainlane4_.9" vType="xiaokeche" speedFactor="0.93" vaporized=""/>
    <tripinfo id="xiaokeche_mainlane2_.9" depart="27.00" departLane="main0_2" departPos="4.10" departSpeed="0.00" departDelay="5.40" arrival="62.00" arrivalLane="main1_2" arrivalPos="300.00" arrivalSpeed="12.62" duration="35.00" routeLength="396.00" waitingTime="0.00" waitingCount="0" stopTime="0.00" timeLoss="4.76" rerouteNo="0" devices="tripinfo_xiaokeche_mainlane2_.9 routing_xiaokeche_mainlane2_.9" vType="xiaokeche" speedFactor="0.95" vaporized=""/>
    <tripinfo id="xiaokeche_mainlane3_.9" depart="26.00" departLane="main0_3" departPos="4.10" departSpeed="0.00" departDelay="4.40" arrival="62.00" arrivalLane="main1_3" arrivalPos="300.00" arrivalSpeed="12.61" duration="36.00" routeLength="396.00" waitingTime="0.00" waitingCount="0" stopTime="0.00" timeLoss="5.16" rerouteNo="0" devices="tripinfo_xiaokeche_mainlane3_.9 routing_xiaokeche_mainlane3_.9" vType="xiaokeche" speedFactor="0.94" vaporized=""/>
    <tripinfo id="xiaokeche_mainlane1_.10" depart="30.00" departLane="main0_1" departPos="4.10" departSpeed="0.00" departDelay="6.00" arrival="62.00" arrivalLane="main1_1" arrivalPos="300.00" arrivalSpeed="15.00" duration="32.00" routeLength="396.00" waitingTime="0.00" waitingCount="0" stopTime="0.00" timeLoss="5.30" rerouteNo="0" devices="tripinfo_xiaokeche_mainlane1_.10 routing_xiaokeche_mainlane1_.10" vType="xiaokeche" speedFactor="1.08" vaporized=""/>
    <tripinfo id="xiaokeche_mainlane4_.10" depart="28.00" departLane="main0_4" departPos="4.10" departSpeed="0.00" departDelay="4.00" arrival="63.00" arrivalLane="main1_4" arrivalPos="300.00" arrivalSpeed="13.29" duration="35.00" routeLength="396.00" waitingTime="0.00" waitingCount="0" stopTime="0.00" timeLoss="5.99" rerouteNo="0" devices="tripinfo_xiaokeche_mainlane4_.10 routing_xiaokeche_mainlane4_.10" vType="xiaokeche" speedFactor="1.00" vaporized=""/>
    <tripinfo id="xiaokeche_mainlane2_.10" depart="30.00" departLane="main0_2" departPos="4.10" departSpeed="0.00" departDelay="6.00" arrival="64.00" arrivalLane="main1_2" arrivalPos="300.00" arrivalSpeed="13.28" duration="34.00" routeLength="396.00" waitingTime="0.00" waitingCount="0" stopTime="0.00" timeLoss="5.10" rerouteNo="0" devices="tripinfo_xiaokeche_mainlane2_.10 routing_xiaokeche_mainlane2_.10" vType="xiaokeche" speedFactor="1.01" vaporized=""/>
    <tripinfo id="xiaokeche_mainlane3_.10" depart="29.00" departLane="main0_3" departPos="4.10" departSpeed="0.00" departDelay="5.00" arrival="64.00" arrivalLane="main1_3" arrivalPos="300.00" arrivalSpeed="14.54" duration="35.00" routeLength="396.00" waitingTime="0.00" waitingCount="0" stopTime="0.00" timeLoss="6.86" rerouteNo="0" devices="tripinfo_xiaokeche_mainlane3_.10 routing_xiaokeche_mainlane3_.10" vType="xiaokeche" speedFactor="1.05" vaporized=""/>
    <tripinfo id="xiaokeche_mainlane0_.10" depart="29.00" departLane="main0_0" departPos="4.10" departSpeed="0.00" departDelay="5.00" arrival="65.00" arrivalLane="main1_0" arrivalPos="300.00" arrivalSpeed="12.61" duration="36.00" routeLength="396.00" waitingTime="0.00" waitingCount="0" stopTime="0.00" timeLoss="4.64" rerouteNo="0" devices="tripinfo_xiaokeche_mainlane0_.10 routing_xiaokeche_mainlane0_.10" vType="xiaokeche" speedFactor="0.93" vaporized=""/>
    <tripinfo id="xiaokeche_mainlane2_.11" depart="33.00" departLane="main0_2" departPos="4.10" departSpeed="0.00" departDelay="6.60" arrival="65.00" arrivalLane="main1_2" arrivalPos="300.00" arrivalSpeed="13.83" duration="32.00" routeLength="396.00" waitingTime="0.00" waitingCount="0" stopTime="0.00" timeLoss="5.29" rerouteNo="0" devices="tripinfo_xiaokeche_mainlane2_.11 routing_xiaokeche_mainlane2_.11" vType="xiaokeche" speedFactor="1.07" vaporized=""/>
    <tripinfo id="xiaokeche_mainlane3_.11" depart="32.00" departLane="main0_3" departPos="4.10" departSpeed="0.00" departDelay="5.60" arrival="65.00" arrivalLane="main1_3" arrivalPos="300.00" arrivalSpeed="13.59" duration="33.00" routeLength="396.00" waitingTime="0.00" waitingCount="0" stopTime="0.00" timeLoss="4.74" rerouteNo="0" devices="tripinfo_xiaokeche_mainlane3_.11 routing_xiaokeche_mainlane3_.11" vType="xiaokeche" speedFactor="1.01" vaporized=""/>
    <tripinfo id="xiaokeche_mainlane4_.11" depart="31.00" departLane="main0_4" departPos="4.10" departSpeed="0.00" departDelay="4.60" arrival="65.00" arrivalLane="main1_4" arrivalPos="300.00" arrivalSpeed="12.52" duration="34.00" routeLength="396.00" waitingTime="0.00" waitingCount="0" stopTime="0.00" timeLoss="4.85" rerouteNo="0" devices="tripinfo_xiaokeche_mainlane4_.11 routing_xiaokeche_mainlane4_.11" vType="xiaokeche" speedFactor="0.98" vaporized=""/>
    <tripinfo id="xiaokeche_mainlane0_.11" depart="32.00" departLane="main0_0" departPos="4.10" departSpeed="0.00" departDelay="5.60" arrival="66.00" arrivalLane="main1_0" arrivalPos="300.00" arrivalSpeed="13.68" duration="34.00" routeLength="396.00" waitingTime="0.00" waitingCount="0" stopTime="0.00" timeLoss="5.34" rerouteNo="0" devices="tripinfo_xiaokeche_mainlane0_.11 routing_xiaokeche_mainlane0_.11" vType="xiaokeche" speedFactor="1.00" vaporized=""/>
    <tripinfo id="xiaokeche_mainlane1_.11" depart="33.00" departLane="main0_1" departPos="4.10" departSpeed="0.00" departDelay="6.60" arrival="67.00" arrivalLane="main1_1" arrivalPos="300.00" arrivalSpeed="12.53" duration="34.00" routeLength="396.00" waitingTime="0.00" waitingCount="0" stopTime="0.00" timeLoss="3.78" rerouteNo="0" devices="tripinfo_xiaokeche_mainlane1_.11 routing_xiaokeche_mainlane1_.11" vType="xiaokeche" speedFactor="0.95" vaporized=""/>
    <tripinfo id="xiaokeche_mainlane0_.12" depart="35.00" departLane="main0_0" departPos="4.10" departSpeed="0.00" departDelay="6.20" arrival="68.00" arrivalLane="main1_0" arrivalPos="300.00" arrivalSpeed="14.09" duration="33.00" routeLength="396.00" waitingTime="0.00" waitingCount="0" stopTime="0.00" timeLoss="5.09" rerouteNo="0" devices="tripinfo_xiaokeche_mainlane0_.12 routing_xiaokeche_mainlane0_.12" vType="xiaokeche" speedFactor="1.04" vaporized=""/>
    <tripinfo id="xiaokeche_mainlane1_.12" depart="35.00" departLane="main0_1" departPos="4.10" departSpeed="0.00" departDelay="6.20" arrival="69.00" arrivalLane="main1_1" arrivalPos="300.00" arrivalSpeed="14.36" duration="34.00" routeLength="396.00" waitingTime="0.00" waitingCount="0" stopTime="0.00" timeLoss="6.45" rerouteNo="0" devices="tripinfo_xiaokeche_mainlane1_.12 routing_xiaokeche_mainlane1_.12" vType="xiaokeche" speedFactor="1.06" vaporized=""/>
    <tripinfo id="xiaokeche_mainlane3_.12" depart="35.00" departLane="main0_3" departPos="4.10" departSpeed="0.00" departDelay="6.20" arrival="69.00" arrivalLane="main1_3" arrivalPos="300.00" arrivalSpeed="13.39" duration="34.00" routeLength="396.00" waitingTime="0.00" waitingCount="0" stopTime="0.00" timeLoss="4.90" rerouteNo="0" devices="tripinfo_xiaokeche_mainlane3_.12 routing_xiaokeche_mainlane3_.12" vType="xiaokeche" speedFactor="0.99" vaporized=""/>