<?xml version="1.0" encoding="UTF-8"?>

<!-- generated on 11/24/21 17:07:06 by Eclipse SUMO GUI Version 1.8.0
<configuration xmlns:xsi="http://www.w3.org/2001/XMLSchema-instance" xsi:noNamespaceSchemaLocation="http://sumo.dlr.de/xsd/sumoConfiguration.xsd">

    <input>
        <net-file value="F:\sumo_pro\traci_main\test1/test.net.xml"/>
        <route-files value="F:\sumo_pro\traci_main\test1/routes1.rou.xml"/>
    </input>

    <output>
        <tripinfo-output value="F:\sumo_pro\traci_main\test1/tripinfo2_TEST.xml"/>
    </output>

    <time>
        <begin value="0"/>
        <end value="20000"/>
    </time>

    <processing>
        <lateral-resolution value="3.5"/>
    </processing>

    <report>
        <verbose value="true"/>
        <duration-log.statistics value="true"/>
    </report>

    <traci_server>
        <remote-port value="49765"/>
    </traci_server>

    <gui_only>
        <gui-settings-file value="F:\sumo_pro\traci_main\test1/gui-settings2.cfg"/>
        <quit-on-end value="true"/>
        <start value="true"/>
    </gui_only>

</configuration>
-->

<tripinfos xmlns:xsi="http://www.w3.org/2001/XMLSchema-instance" xsi:noNamespaceSchemaLocation="http://sumo.dlr.de/xsd/tripinfo_file.xsd">
    <tripinfo id="xiaokeche_mainlane3_.0" depart="0.00" departLane="main0_3" departPos="4.10" departPosLat="0.00" departSpeed="0.00" departDelay="0.00" arrival="32.00" arrivalLane="main1_3" arrivalPos="300.00" arrivalPosLat="0.00" arrivalSpeed="13.99" duration="32.00" routeLength="396.00" waitingTime="0.00" waitingCount="0" stopTime="0.00" timeLoss="4.14" rerouteNo="0" devices="tripinfo_xiaokeche_mainlane3_.0 routing_xiaokeche_mainlane3_.0" vType="xiaokeche" speedFactor="1.04" vaporized=""/>
    <tripinfo id="xiaokeche_mainlane2_.0" depart="0.00" departLane="main0_2" departPos="4.10" departPosLat="0.00" departSpeed="0.00" departDelay="0.00" arrival="33.00" arrivalLane="main1_1" arrivalPos="300.00" arrivalPosLat="1.63" arrivalSpeed="13.00" duration="33.00" routeLength="396.00" waitingTime="0.00" waitingCount="0" stopTime="0.00" timeLoss="4.08" rerouteNo="0" devices="tripinfo_xiaokeche_mainlane2_.0 routing_xiaokeche_mainlane2_.0" vType="xiaokeche" speedFactor="1.01" vaporized=""/>
    <tripinfo id="xiaokeche_mainlane4_.0" depart="0.00" departLane="main0_4" departPos="4.10" departPosLat="0.00" departSpeed="0.00" departDelay="0.00" arrival="33.00" arrivalLane="main1_4" arrivalPos="300.00" arrivalPosLat="0.00" arrivalSpeed="13.16" duration="33.00" routeLength="396.00" waitingTime="0.00" waitingCount="0" stopTime="0.00" timeLoss="4.56" rerouteNo="0" devices="tripinfo_xiaokeche_mainlane4_.0 routing_xiaokeche_mainlane4_.0" vType="xiaokeche" speedFactor="1.02" vaporized=""/>
    <tripinfo id="xiaokeche_mainlane1_.0" depart="0.00" departLane="main0_1" departPos="4.10" departPosLat="0.00" departSpeed="0.00" departDelay="0.00" arrival="34.00" arrivalLane="main1_0" arrivalPos="300.00" arrivalPosLat="0.00" arrivalSpeed="12.64" duration="34.00" routeLength="396.00" waitingTime="0.00" waitingCount="0" stopTime="0.00" timeLoss="3.90" rerouteNo="0" devices="tripinfo_xiaokeche_mainlane1_.0 routing_xiaokeche_mainlane1_.0" vType="xiaokeche" speedFactor="0.97" vaporized=""/>
    <tripinfo id="xiaokeche_mainlane0_.0" depart="0.00" departLane="main0_0" departPos="4.10" departPosLat="0.00" departSpeed="0.00" departDelay="0.00" arrival="35.00" arrivalLane="main1_4" arrivalPos="300.00" arrivalPosLat="0.00" arrivalSpeed="13.75" duration="35.00" routeLength="396.00" waitingTime="0.00" waitingCount="0" stopTime="0.00" timeLoss="6.61" rerouteNo="0" devices="tripinfo_xiaokeche_mainlane0_.0 routing_xiaokeche_mainlane0_.0" vType="xiaokeche" speedFactor="1.03" vaporized=""/>
    <tripinfo id="xiaokeche_mainlane1_.1" depart="3.00" departLane="main0_1" departPos="4.10" departPosLat="0.00" departSpeed="0.00" departDelay="0.60" arrival="36.00" arrivalLane="main1_1" arrivalPos="300.00" arrivalPosLat="0.00" arrivalSpeed="13.55" duration="33.00" routeLength="396.00" waitingTime="0.00" waitingCount="0" stopTime="0.00" timeLoss="4.53" rerouteNo="0" devices="tripinfo_xiaokeche_mainlane1_.1 routing_xiaokeche_mainlane1_.1" vType="xiaokeche" speedFactor="1.02" vaporized=""/>
    <tripinfo id="xiaokeche_mainlane3_.1" depart="3.00" departLane="main0_3" departPos="4.10" departPosLat="0.00" departSpeed="0.00" departDelay="0.60" arrival="37.00" arrivalLane="main1_3" arrivalPos="300.00" arrivalPosLat="0.00" arrivalSpeed="12.35" duration="34.00" routeLength="396.00" waitingTime="0.00" waitingCount="0" stopTime="0.00" timeLoss="4.54" rerouteNo="0" devices="tripinfo_xiaokeche_mainlane3_.1 routing_xiaokeche_mainlane3_.1" vType="xiaokeche" speedFactor="0.97" vaporized=""/>
    <tripinfo id="xiaokeche_mainlane4_.1" depart="3.00" departLane="main0_4" departPos="4.10" departPosLat="0.00" departSpeed="0.00" departDelay="0.60" arrival="38.00" arrivalLane="main1_5" arrivalPos="300.00" arrivalPosLat="0.00" arrivalSpeed="12.55" duration="35.00" routeLength="396.00" waitingTime="0.00" waitingCount="0" stopTime="0.00" timeLoss="4.13" rerouteNo="0" devices="tripinfo_xiaokeche_mainlane4_.1 routing_xiaokeche_mainlane4_.1" vType="xiaokeche" speedFactor="0.93" vaporized=""/>
    <tripinfo id="xiaokeche_mainlane2_.1" depart="3.00" departLane="main0_2" departPos="4.10" departPosLat="0.00" departSpeed="0.00" departDelay="0.60" arrival="39.00" arrivalLane="main1_0" arrivalPos="300.00" arrivalPosLat="0.38" arrivalSpeed="12.48" duration="36.00" routeLength="396.00" waitingTime="0.00" waitingCount="0" stopTime="0.00" timeLoss="4.84" rerouteNo="0" devices="tripinfo_xiaokeche_mainlane2_.1 routing_xiaokeche_mainlane2_.1" vType="xiaokeche" speedFactor="0.94" vaporized=""/>
    <tripinfo id="xiaokeche_mainlane3_.2" depart="6.00" departLane="main0_3" departPos="4.10" departPosLat="0.00" departSpeed="0.00" departDelay="1.20" arrival="39.00" arrivalLane="main1_3" arrivalPos="300.00" arrivalPosLat="-0.63" arrivalSpeed="14.62" duration="33.00" routeLength="396.00" waitingTime="0.00" waitingCount="0" stopTime="0.00" timeLoss="5.65" rerouteNo="0" devices="tripinfo_xiaokeche_mainlane3_.2 routing_xiaokeche_mainlane3_.2" vType="xiaokeche" speedFactor="1.06" vaporized=""/>
    <tripinfo id="xiaokeche_mainlane4_.2" depart="6.00" departLane="main0_4" departPos="4.10" departPosLat="0.00" departSpeed="0.00" departDelay="1.20" arrival="39.00" arrivalLane="main1_4" arrivalPos="300.00" arrivalPosLat="0.00" arrivalSpeed="13.37" duration="33.00" routeLength="396.00" waitingTime="0.00" waitingCount="0" stopTime="0.00" timeLoss="3.95" rerouteNo="0" devices="tripinfo_xiaokeche_mainlane4_.2 routing_xiaokeche_mainlane4_.2" vType="xiaokeche" speedFactor="1.00" vaporized=""/>
    <tripinfo id="xiaokeche_mainlane4_.3" depart="8.00" departLane="main0_4" departPos="4.10" departPosLat="0.00" departSpeed="0.00" departDelay="0.80" arrival="41.00" arrivalLane="main1_5" arrivalPos="300.00" arrivalPosLat="0.00" arrivalSpeed="14.29" duration="33.00" routeLength="396.00" waitingTime="0.00" waitingCount="0" stopTime="0.00" timeLoss="6.31" rerouteNo="0" devices="tripinfo_xiaokeche_mainlane4_.3 routing_xiaokeche_mainlane4_.3" vType="xiaokeche" speedFactor="1.08" vaporized=""/>
    <tripinfo id="xiaokeche_mainlane0_.1" depart="3.00" departLane="main0_0" departPos="4.10" departPosLat="0.00" departSpeed="0.00" departDelay="0.60" arrival="43.00" arrivalLane="main1_4" arrivalPos="300.00" arrivalPosLat="0.00" arrivalSpeed="12.51" duration="40.00" routeLength="396.00" waitingTime="0.00" waitingCount="0" stopTime="0.00" timeLoss="8.48" rerouteNo="0" devices="tripinfo_xiaokeche_mainlane0_.1 routing_xiaokeche_mainlane0_.1" vType="xiaokeche" speedFactor="0.92" vaporized=""/>
    <tripinfo id="xiaokeche_mainlane2_.2" depart="5.00" departLane="main0_2" departPos="4.10" departPosLat="0.00" departSpeed="0.00" departDelay="0.20" arrival="43.00" arrivalLane="main1_3" arrivalPos="300.00" arrivalPosLat="0.00" arrivalSpeed="13.45" duration="38.00" routeLength="396.00" waitingTime="0.00" waitingCount="0" stopTime="0.00" timeLoss="9.23" rerouteNo="0" devices="tripinfo_xiaokeche_mainlane2_.2 routing_xiaokeche_mainlane2_.2" vType="xiaokeche" speedFactor="1.02" vaporized=""/>
    <tripinfo id="xiaokeche_mainlane3_.3" depart="9.00" departLane="main0_3" departPos="4.10" departPosLat="0.00" departSpeed="0.00" departDelay="1.80" arrival="45.00" arrivalLane="main1_4" arrivalPos="300.00" arrivalPosLat="0.00" arrivalSpeed="12.25" duration="36.00" routeLength="396.00" waitingTime="0.00" waitingCount="0" stopTime="0.00" timeLoss="5.93" rerouteNo="0" devices="tripinfo_xiaokeche_mainlane3_.3 routing_xiaokeche_mainlane3_.3" vType="xiaokeche" speedFactor="0.97" vaporized=""/>
    <tripinfo id="xiaokeche_mainlane0_.2" depart="6.00" departLane="main0_0" departPos="4.10" departPosLat="0.00" departSpeed="0.00" departDelay="1.20" arrival="46.00" arrivalLane="main1_4" arrivalPos="300.00" arrivalPosLat="0.00" arrivalSpeed="14.46" duration="40.00" routeLength="396.00" waitingTime="0.00" waitingCount="0" stopTime="0.00" timeLoss="12.60" rerouteNo="0" devices="tripinfo_xiaokeche_mainlane0_.2 routing_xiaokeche_mainlane0_.2" vType="xiaokeche" speedFactor="1.05" vaporized=""/>
    <tripinfo id="xiaokeche_mainlane1_.2" depart="6.00" departLane="main0_1" departPos="4.10" departPosLat="0.00" departSpeed="0.00" departDelay="1.20" arrival="47.00" arrivalLane="main1_2" arrivalPos="300.00" arrivalPosLat="0.63" arrivalSpeed="12.84" duration="41.00" routeLength="396.00" waitingTime="0.00" waitingCount="0" stopTime="0.00" timeLoss="12.11" rerouteNo="0" devices="tripinfo_xiaokeche_mainlane1_.2 routing_xiaokeche_mainlane1_.2" vType="xiaokeche" speedFactor="1.01" vaporized=""/>
    <tripinfo id="xiaokeche_mainlane3_.4" depart="12.00" departLane="main0_3" departPos="4.10" departPosLat="0.00" departSpeed="0.00" departDelay="2.40" arrival="48.00" arrivalLane="main1_4" arrivalPos="300.00" arrivalPosLat="0.00" arrivalSpeed="11.91" duration="36.00" routeLength="396.00" waitingTime="0.00" waitingCount="0" stopTime="0.00" timeLoss="5.82" rerouteNo="0" devices="tripinfo_xiaokeche_mainlane3_.4 routing_xiaokeche_mainlane3_.4" vType="xiaokeche" speedFactor="0.94" vaporized=""/>
    <tripinfo id="xiaokeche_mainlane4_.4" depart="11.00" departLane="main0_4" departPos="4.10" departPosLat="0.00" departSpeed="0.00" departDelay="1.40" arrival="48.00" arrivalLane="main1_5" arrivalPos="300.00" arrivalPosLat="0.00" arrivalSpeed="12.02" duration="37.00" routeLength="396.00" waitingTime="0.00" waitingCount="0" stopTime="0.00" timeLoss="5.57" rerouteNo="0" devices="tripinfo_xiaokeche_mainlane4_.4 routing_xiaokeche_mainlane4_.4" vType="xiaokeche" speedFactor="0.91" vaporized=""/>
    <tripinfo id="xiaokeche_mainlane0_.3" depart="9.00" departLane="main0_0" departPos="4.10" departPosLat="0.00" departSpeed="0.00" departDelay="1.80" arrival="50.00" arrivalLane="main1_4" arrivalPos="300.00" arrivalPosLat="0.00" arrivalSpeed="12.78" duration="41.00" routeLength="396.00" waitingTime="0.00" waitingCount="0" stopTime="0.00" timeLoss="11.14" rerouteNo="0" devices="tripinfo_xiaokeche_mainlane0_.3 routing_xiaokeche_mainlane0_.3" vType="xiaokeche" speedFactor="0.96" vaporized=""/>
    <tripinfo id="xiaokeche_mainlane3_.5" depart="14.00" departLane="main0_3" departPos="4.10" departPosLat="0.00" departSpeed="0.00" departDelay="2.00" arrival="50.00" arrivalLane="main1_5" arrivalPos="300.00" arrivalPosLat="0.00" arrivalSpeed="14.28" duration="36.00" routeLength="396.00" waitingTime="0.00" waitingCount="0" stopTime="0.00" timeLoss="8.58" rerouteNo="0" devices="tripinfo_xiaokeche_mainlane3_.5 routing_xiaokeche_mainlane3_.5" vType="xiaokeche" speedFactor="1.07" vaporized=""/>
    <tripinfo id="xiaokeche_mainlane2_.3" depart="9.00" departLane="main0_2" departPos="4.10" departPosLat="0.00" departSpeed="0.00" departDelay="1.80" arrival="52.00" arrivalLane="main1_0" arrivalPos="300.00" arrivalPosLat="0.00" arrivalSpeed="12.83" duration="43.00" routeLength="396.00" waitingTime="1.00" waitingCount="1" stopTime="0.00" timeLoss="13.60" rerouteNo="0" devices="tripinfo_xiaokeche_mainlane2_.3 routing_xiaokeche_mainlane2_.3" vType="xiaokeche" speedFactor="0.97" vaporized=""/>
    <tripinfo id="xiaokeche_mainlane0_.4" depart="13.00" departLane="main0_0" departPos="4.10" departPosLat="0.00" departSpeed="0.00" departDelay="3.40" arrival="52.00" arrivalLane="main1_4" arrivalPos="300.00" arrivalPosLat="0.00" arrivalSpeed="13.31" duration="39.00" routeLength="396.00" waitingTime="0.00" waitingCount="0" stopTime="0.00" timeLoss="10.10" rerouteNo="0" devices="tripinfo_xiaokeche_mainlane0_.4 routing_xiaokeche_mainlane0_.4" vType="xiaokeche" speedFactor="1.01" vaporized=""/>
    <tripinfo id="xiaokeche_mainlane3_.6" depart="17.00" departLane="main0_3" departPos="4.10" departPosLat="0.00" departSpeed="0.00" departDelay="2.60" arrival="52.00" arrivalLane="main1_3" arrivalPos="300.00" arrivalPosLat="0.00" arrivalSpeed="14.22" duration="35.00" routeLength="396.00" waitingTime="0.00" waitingCount="0" stopTime="0.00" timeLoss="7.82" rerouteNo="0" devices="tripinfo_xiaokeche_mainlane3_.6 routing_xiaokeche_mainlane3_.6" vType="xiaokeche" speedFactor="1.09" vaporized=""/>
    <tripinfo id="xiaokeche_mainlane4_.5" depart="14.00" departLane="main0_4" departPos="4.10" departPosLat="0.00" departSpeed="0.00" departDelay="2.00" arrival="53.00" arrivalLane="main1_5" arrivalPos="300.00" arrivalPosLat="0.00" arrivalSpeed="12.76" duration="39.00" routeLength="396.00" waitingTime="0.00" waitingCount="0" stopTime="0.00" timeLoss="9.30" rerouteNo="0" devices="tripinfo_xiaokeche_mainlane4_.5 routing_xiaokeche_mainlane4_.5" vType="xiaokeche" speedFactor="0.97" vaporized=""/>
    <tripinfo id="xiaokeche_mainlane4_.7" depart="20.00" departLane="main0_4" departPos="4.10" departPosLat="0.00" departSpeed="0.00" departDelay="3.20" arrival="55.00" arrivalLane="main1_5" arrivalPos="300.00" arrivalPosLat="0.00" arrivalSpeed="12.55" duration="35.00" routeLength="396.00" waitingTime="0.00" waitingCount="0" stopTime="0.00" timeLoss="4.97" rerouteNo="0" devices="tripinfo_xiaokeche_mainlane4_.7 routing_xiaokeche_mainlane4_.7" vType="xiaokeche" speedFactor="0.95" vaporized=""/>
    <tripinfo id="xiaokeche_mainlane0_.5" depart="16.00" departLane="main0_0" departPos="4.10" departPosLat="0.00" departSpeed="0.00" departDelay="4.00" arrival="56.00" arrivalLane="main1_4" arrivalPos="300.00" arrivalPosLat="0.00" arrivalSpeed="12.46" duration="40.00" routeLength="396.00" waitingTime="0.00" waitingCount="0" stopTime="0.00" timeLoss="8.87" rerouteNo="0" devices="tripinfo_xiaokeche_mainlane0_.5 routing_xiaokeche_mainlane0_.5" vType="xiaokeche" speedFactor="0.94" vaporized=""/>
    <tripinfo id="xiaokeche_mainlane0_.6" depart="19.00" departLane="main0_0" departPos="4.10" departPosLat="0.00" departSpeed="0.00" departDelay="4.60" arrival="57.00" arrivalLane="main1_4" arrivalPos="300.00" arrivalPosLat="0.00" arrivalSpeed="13.80" duration="38.00" routeLength="396.00" waitingTime="0.00" waitingCount="0" stopTime="0.00" timeLoss="11.72" rerouteNo="0" devices="tripinfo_xiaokeche_mainlane0_.6 routing_xiaokeche_mainlane0_.6" vType="xiaokeche" speedFactor="1.09" vaporized=""/>
    <tripinfo id="xiaokeche_mainlane4_.8" depart="23.00" departLane="main0_4" departPos="4.10" departPosLat="0.00" departSpeed="0.00" departDelay="3.80" arrival="57.00" arrivalLane="main1_5" arrivalPos="300.00" arrivalPosLat="0.00" arrivalSpeed="13.21" duration="34.00" routeLength="396.00" waitingTime="0.00" waitingCount="0" stopTime="0.00" timeLoss="5.57" rerouteNo="0" devices="tripinfo_xiaokeche_mainlane4_.8 routing_xiaokeche_mainlane4_.8" vType="xiaokeche" speedFactor="1.02" vaporized=""/>
    <tripinfo id="xiaokeche_mainlane1_.4" depart="16.00" departLane="main0_1" departPos="4.10" departPosLat="0.00" departSpeed="0.00" departDelay="6.40" arrival="58.00" arrivalLane="main1_3" arrivalPos="300.00" arrivalPosLat="0.00" arrivalSpeed="13.91" duration="42.00" routeLength="396.00" waitingTime="2.00" waitingCount="1" stopTime="0.00" timeLoss="13.50" rerouteNo="0" devices="tripinfo_xiaokeche_mainlane1_.4 routing_xiaokeche_mainlane1_.4" vType="xiaokeche" speedFactor="1.01" vaporized=""/>
    <tripinfo id="xiaokeche_mainlane1_.3" depart="13.00" departLane="main0_1" departPos="4.10" departPosLat="0.00" departSpeed="0.00" departDelay="5.80" arrival="59.00" arrivalLane="main1_0" arrivalPos="300.00" arrivalPosLat="0.00" arrivalSpeed="12.01" duration="46.00" routeLength="396.00" waitingTime="1.00" waitingCount="1" stopTime="0.00" timeLoss="15.24" rerouteNo="0" devices="tripinfo_xiaokeche_mainlane1_.3 routing_xiaokeche_mainlane1_.3" vType="xiaokeche" speedFactor="0.94" vaporized=""/>
    <tripinfo id="xiaokeche_mainlane4_.6" depart="17.00" departLane="main0_4" departPos="4.10" departPosLat="0.00" departSpeed="0.00" departDelay="2.60" arrival="59.00" arrivalLane="main1_4" arrivalPos="300.00" arrivalPosLat="-1.00" arrivalSpeed="13.40" duration="42.00" routeLength="396.00" waitingTime="0.00" waitingCount="0" stopTime="0.00" timeLoss="13.02" rerouteNo="0" devices="tripinfo_xiaokeche_mainlane4_.6 routing_xiaokeche_mainlane4_.6" vType="xiaokeche" speedFactor="1.00" vaporized=""/>
    <tripinfo id="xiaokeche_mainlane1_.5" depart="19.00" departLane="main0_1" departPos="4.10" departPosLat="0.00" departSpeed="0.00" departDelay="7.00" arrival="60.00" arrivalLane="main1_1" arrivalPos="300.00" arrivalPosLat="0.00" arrivalSpeed="12.27" duration="41.00" routeLength="396.00" waitingTime="0.00" waitingCount="0" stopTime="0.00" timeLoss="11.06" rerouteNo="0" devices="tripinfo_xiaokeche_mainlane1_.5 routing_xiaokeche_mainlane1_.5" vType="xiaokeche" speedFactor="0.96" vaporized=""/>
    <tripinfo id="xiaokeche_mainlane2_.5" depart="23.00" departLane="main0_2" departPos="4.10" departPosLat="0.00" departSpeed="0.00" departDelay="11.00" arrival="60.00" arrivalLane="main1_2" arrivalPos="300.00" arrivalPosLat="1.00" arrivalSpeed="12.47" duration="37.00" routeLength="396.00" waitingTime="0.00" waitingCount="0" stopTime="0.00" timeLoss="6.95" rerouteNo="0" devices="tripinfo_xiaokeche_mainlane2_.5 routing_xiaokeche_mainlane2_.5" vType="xiaokeche" speedFactor="0.97" vaporized=""/>
    <tripinfo id="xiaokeche_mainlane3_.8" depart="23.00" departLane="main0_3" departPos="4.10" departPosLat="0.00" departSpeed="0.00" departDelay="3.80" arrival="60.00" arrivalLane="main1_5" arrivalPos="300.00" arrivalPosLat="0.00" arrivalSpeed="13.19" duration="37.00" routeLength="396.00" waitingTime="0.00" waitingCount="0" stopTime="0.00" timeLoss="8.53" rerouteNo="0" devices="tripinfo_xiaokeche_mainlane3_.8 routing_xiaokeche_mainlane3_.8" vType="xiaokeche" speedFactor="1.02" vaporized=""/>
    <tripinfo id="xiaokeche_mainlane2_.4" depart="12.00" departLane="main0_2" departPos="4.10" departPosLat="0.00" departSpeed="0.00" departDelay="2.40" arrival="61.00" arrivalLane="main1_4" arrivalPos="300.00" arrivalPosLat="0.00" arrivalSpeed="13.48" duration="49.00" routeLength="396.00" waitingTime="1.00" waitingCount="1" stopTime="0.00" timeLoss="19.42" rerouteNo="0" devices="tripinfo_xiaokeche_mainlane2_.4 routing_xiaokeche_mainlane2_.4" vType="xiaokeche" speedFactor="0.99" vaporized=""/>
    <tripinfo id="xiaokeche_mainlane3_.7" depart="20.00" departLane="main0_3" departPos="4.10" departPosLat="0.00" departSpeed="0.00" departDelay="3.20" arrival="62.00" arrivalLane="main1_4" arrivalPos="300.00" arrivalPosLat="0.00" arrivalSpeed="14.35" duration="42.00" routeLength="396.00" waitingTime="0.00" waitingCount="0" stopTime="0.00" timeLoss="14.79" rerouteNo="0" devices="tripinfo_xiaokeche_mainlane3_.7 routing_xiaokeche_mainlane3_.7" vType="xiaokeche" speedFactor="1.05" vaporized=""/>
    <tripinfo id="xiaokeche_mainlane3_.9" depart="26.00" departLane="main0_3" departPos="4.10" departPosLat="0.00" departSpeed="0.00" departDelay="4.40" arrival="62.00" arrivalLane="main1_3" arrivalPos="300.00" arrivalPosLat="0.00" arrivalSpeed="11.77" duration="36.00" routeLength="396.00" waitingTime="0.00" waitingCount="0" stopTime="0.00" timeLoss="5.05" rerouteNo="0" devices="tripinfo_xiaokeche_mainlane3_.9 routing_xiaokeche_mainlane3_.9" vType="xiaokeche" speedFactor="0.94" vaporized=""/>
    <tripinfo id="xiaokeche_mainlane0_.7" depart="22.00" departLane="main0_0" departPos="4.10" departPosLat="0.00" departSpeed="0.00" departDelay="5.20" arrival="64.00" arrivalLane="main1_4" arrivalPos="300.00" arrivalPosLat="0.00" arrivalSpeed="13.62" duration="42.00" routeLength="396.00" waitingTime="1.00" waitingCount="1" stopTime="0.00" timeLoss="13.33" rerouteNo="0" devices="tripinfo_xiaokeche_mainlane0_.7 routing_xiaokeche_mainlane0_.7" vType="xiaokeche" speedFactor="1.01" vaporized=""/>
    <tripinfo id="xiaokeche_mainlane1_.7" depart="31.00" departLane="main0_1" departPos="4.10" departPosLat="0.00" departSpeed="0.00" departDelay="14.20" arrival="64.00" arrivalLane="main1_0" arrivalPos="300.00" arrivalPosLat="0.00" arrivalSpeed="12.71" duration="33.00" routeLength="396.00" waitingTime="0.00" waitingCount="0" stopTime="0.00" timeLoss="4.03" rerouteNo="0" devices="tripinfo_xiaokeche_mainlane1_.7 routing_xiaokeche_mainlane1_.7" vType="xiaokeche" speedFactor="0.99" vaporized=""/>
    <tripinfo id="xiaokeche_mainlane4_.9" depart="28.00" departLane="main0_4" departPos="4.10" departPosLat="0.00" departSpeed="0.00" departDelay="6.40" arrival="64.00" arrivalLane="main1_5" arrivalPos="300.00" arrivalPosLat="0.00" arrivalSpeed="11.90" duration="36.00" routeLength="396.00" waitingTime="0.00" waitingCount="0" stopTime="0.00" timeLoss="4.72" rerouteNo="0" devices="tripinfo_xiaokeche_mainlane4_.9 routing_xiaokeche_mainlane4_.9" vType="xiaokeche" speedFactor="0.93" vaporized=""/>
    <tripinfo id="xiaokeche_mainlane3_.10" depart="29.00" departLane="main0_3" departPos="4.10" departPosLat="0.00" departSpeed="0.00" departDelay="5.00" arrival="65.00" arrivalLane="main1_5" arrivalPos="300.00" arrivalPosLat="0.00" arrivalSpeed="13.98" duration="36.00" routeLength="396.00" waitingTime="0.00" waitingCount="0" stopTime="0.00" timeLoss="8.77" rerouteNo="0" devices="tripinfo_xiaokeche_mainlane3_.10 routing_xiaokeche_mainlane3_.10" vType="xiaokeche" speedFactor="1.05" vaporized=""/>
    <tripinfo id="xiaokeche_mainlane0_.8" depart="24.00" departLane="main0_0" departPos="4.10" departPosLat="0.00" departSpeed="0.00" departDelay="4.80" arrival="66.00" arrivalLane="main1_4" arrivalPos="300.00" arrivalPosLat="0.00" arrivalSpeed="14.04" duration="42.00" routeLength="396.00" waitingTime="1.00" waitingCount="1" stopTime="0.00" timeLoss="13.14" rerouteNo="0" devices="tripinfo_xiaokeche_mainlane0_.8 routing_xiaokeche_mainlane0_.8" vType="xiaokeche" speedFactor="1.02" vaporized=""/>
    <tripinfo id="xiaokeche_mainlane1_.6" depart="23.00" departLane="main0_1" departPos="4.10" departPosLat="0.00" departSpeed="0.00" departDelay="8.60" arrival="67.00" arrivalLane="main1_5" arrivalPos="300.00" arrivalPosLat="0.00" arrivalSpeed="13.95" duration="44.00" routeLength="396.00" waitingTime="5.00" waitingCount="3" stopTime="0.00" timeLoss="17.10" rerouteNo="0" devices="tripinfo_xiaokeche_mainlane1_.6 routing_xiaokeche_mainlane1_.6" vType="xiaokeche" speedFactor="1.08" vaporized=""/>
    <tripinfo id="xiaokeche_mainlane3_.11" depart="34.00" departLane="main0_3" departPos="4.10" departPosLat="0.00" departSpeed="0.00" departDelay="7.60" arrival="67.00" arrivalLane="main1_2" arrivalPos="300.00" arrivalPosLat="-0.38" arrivalSpeed="13.08" duration="33.00" routeLength="396.00" waitingTime="0.00" waitingCount="0" stopTime="0.00" timeLoss="4.82" rerouteNo="0" devices="tripinfo_xiaokeche_mainlane3_.11 routing_xiaokeche_mainlane3_.11" vType="xiaokeche" speedFactor="1.01" vaporized=""/>
    <tripinfo id="xiaokeche_mainlane4_.10" depart="34.00" departLane="main0_4" departPos="4.10" departPosLat="0.00" departSpeed="0.00" departDelay="10.00" arrival="69.00" arrivalLane="main1_4" arrivalPos="300.00" arrivalPosLat="0.00" arrivalSpeed="12.98" duration="35.00" routeLength="396.00" waitingTime="0.00" waitingCount="0" stopTime="0.00" timeLoss="6.08" rerouteNo="0" devices="tripinfo_xiaokeche_mainlane4_.10 routing_xiaokeche_mainlane4_.10" vType="xiaokeche" speedFactor="1.00" vaporized=""/>
    <tripinfo id="xiaokeche_mainlane2_.7" depart="35.00" departLane="main0_2" departPos="4.10" departPosLat="0.00" departSpeed="0.00" departDelay="18.20" arrival="70.00" arrivalLane="main1_2" arrivalPos="300.00" arrivalPosLat="0.00" arrivalSpeed="14.58" duration="35.00" routeLength="396.00" waitingTime="0.00" waitingCount="0" stopTime="0.00" timeLoss="8.59" rerouteNo="0" devices="tripinfo_xiaokeche_mainlane2_.7 routing_xiaokeche_mainlane2_.7" vType="xiaokeche" speedFactor="1.09" vaporized=""/>
    <tripinfo id="xiaokeche_mainlane0_.9" depart="31.00" departLane="main0_0" departPos="4.10" departPosLat="0.00" departSpeed="0.00" departDelay="9.40" arrival="71.00" arrivalLane="main1_4" arrivalPos="300.00" arrivalPosLat="0.00" arrivalSpeed="13.70" duration="40.00" routeLength="396.00" waitingTime="0.00" waitingCount="0" stopTime="0.00" timeLoss="11.96" rerouteNo="0" devices="tripinfo_xiaokeche_mainlane0_.9 routing_xiaokeche_mainlane0_.9" vType="xiaokeche" speedFactor="1.04" vaporized=""/>
    <tripinfo id="xiaokeche_mainlane1_.8" depart="38.00" departLane="main0_1" departPos="4.10" departPosLat="0.00" departSpeed="0.00" departDelay="18.80" arrival="72.00" arrivalLane="main1_0" arrivalPos="300.00" arrivalPosLat="0.00" arrivalSpeed="12.37" duration="34.00" routeLength="396.00" waitingTime="0.00" waitingCount="0" stopTime="0.00" timeLoss="4.59" rerouteNo="0" devices="tripinfo_xiaokeche_mainlane1_.8 routing_xiaokeche_mainlane1_.8" vType="xiaokeche" speedFactor="0.98" vaporized=""/>
    <tripinfo id="xiaokeche_mainlane2_.6" depart="29.00" departLane="main0_2" departPos="4.10" departPosLat="0.00" departSpeed="0.00" departDelay="14.60" arrival="73.00" arrivalLane="main1_3" arrivalPos="300.00" arrivalPosLat="0.00" arrivalSpeed="13.52" duration="44.00" routeLength="396.00" waitingTime="1.00" waitingCount="1" stopTime="0.00" timeLoss="15.32" rerouteNo="0" devices="tripinfo_xiaokeche_mainlane2_.6 routing_xiaokeche_mainlane2_.6" vType="xiaokeche" speedFactor="1.00" vaporized=""/>
    <tripinfo id="xiaokeche_mainlane2_.8" depart="38.00" departLane="main0_2" departPos="4.10" departPosLat="0.00" departSpeed="0.00" departDelay="18.80" arrival="73.00" arrivalLane="main1_2" arrivalPos="300.00" arrivalPosLat="0.00" arrivalSpeed="14.20" duration="35.00" routeLength="396.00" waitingTime="0.00" waitingCount="0" stopTime="0.00" timeLoss="7.31" rerouteNo="0" devices="tripinfo_xiaokeche_mainlane2_.8 routing_xiaokeche_mainlane2_.8" vType="xiaokeche" speedFactor="1.05" vaporized=""/>
    <tripinfo id="xiaokeche_mainlane0_.10" depart="35.00" departLane="main0_0" departPos="4.10" departPosLat="0.00" departSpeed="0.00" departDelay="11.00" arrival="73.00" arrivalLane="main1_4" arrivalPos="300.00" arrivalPosLat="0.00" arrivalSpeed="11.68" duration="38.00" routeLength="396.00" waitingTime="0.00" waitingCount="0" stopTime="0.00" timeLoss="7.23" rerouteNo="0" devices="tripinfo_xiaokeche_mainlane0_.10 routing_xiaokeche_mainlane0_.10" vType="xiaokeche" speedFactor="0.93" vaporized=""/>
    <tripinfo id="xiaokeche_mainlane4_.11" depart="37.00" departLane="main0_4" departPos="4.10" departPosLat="0.00" departSpeed="0.00" departDelay="10.60" arrival="73.00" arrivalLane="main1_5" arrivalPos="300.00" arrivalPosLat="0.00" arrivalSpeed="13.62" duration="36.00" routeLength="396.00" waitingTime="0.00" waitingCount="0" stopTime="0.00" timeLoss="6.21" rerouteNo="0" devices="tripinfo_xiaokeche_mainlane4_.11 routing_xiaokeche_mainlane4_.11" vType="xiaokeche" speedFactor="0.98" vaporized=""/>
    <tripinfo id="xiaokeche_mainlane3_.12" depart="37.00" departLane="main0_3" departPos="4.10" departPosLat="0.00" departSpeed="0.00" departDelay="8.20" arrival="75.00" arrivalLane="main1_2" arrivalPos="300.00" arrivalPosLat="0.00" arrivalSpeed="13.16" duration="38.00" routeLength="396.00" waitingTime="0.00" waitingCount="0" stopTime="0.00" timeLoss="9.16" rerouteNo="0" devices="tripinfo_xiaokeche_mainlane3_.12 routing_xiaokeche_mainlane3_.12" vType="xiaokeche" speedFactor="0.99" vaporized=""/>
    <tripinfo id="xiaokeche_mainlane4_.12" depart="40.00" departLane="main0_4" departPos="4.10" departPosLat="0.00" departSpeed="0.00" departDelay="11.20" arrival="75.00" arrivalLane="main1_5" arrivalPos="300.00" arrivalPosLat="0.00" arrivalSpeed="12.36" duration="35.00" routeLength="396.00" waitingTime="0.00" waitingCount="0" stopTime="0.00" timeLoss="5.08" rerouteNo="0" devices="tripinfo_xiaokeche_mainlane4_.12 routing_xiaokeche_mainlane4_.12" vType="xiaokeche" speedFactor="0.97" vaporized=""/>
    <tripinfo id="xiaokeche_mainlane3_.13" depart="40.00" departLane="main0_3" departPos="4.10" departPosLat="0.00" departSpeed="0.00" departDelay="8.80" arrival="76.00" arrivalLane="main1_3" arrivalPos="300.00" arrivalPosLat="0.00" arrivalSpeed="13.57" duration="36.00" routeLength="396.00" waitingTime="0.00" waitingCount="0" stopTime="0.00" timeLoss="8.01" rerouteNo="0" devices="tripinfo_xiaokeche_mainlane3_.13 routing_xiaokeche_mainlane3_.13" vType="xiaokeche" speedFactor="1.02" vaporized=""/>
    <tripinfo id="xiaokeche_mainlane4_.13" depart="45.00" departLane="main0_4" departPos="4.10" departPosLat="0.00" departSpeed="0.00" departDelay="13.80" arrival="78.00" arrivalLane="main1_4" arrivalPos="300.00" arrivalPosLat="0.00" arrivalSpeed="13.29" duration="33.00" routeLength="396.00" waitingTime="0.00" waitingCount="0" stopTime="0.00" timeLoss="3.99" rerouteNo="0" devices="tripinfo_xiaokeche_mainlane4_.13 routing_xiaokeche_mainlane4_.13" vType="xiaokeche" speedFactor="1.01" vaporized=""/>