<?xml version="1.0" encoding="UTF-8"?>

<!-- generated on 11/24/21 16:52:01 by Eclipse SUMO GUI Version 1.8.0
<configuration xmlns:xsi="http://www.w3.org/2001/XMLSchema-instance" xsi:noNamespaceSchemaLocation="http://sumo.dlr.de/xsd/sumoConfiguration.xsd">

    <input>
        <net-file value="F:\sumo_pro\traci_main\test1/test.net.xml"/>
        <route-files value="F:\sumo_pro\traci_main\test1/routes1.rou.xml"/>
    </input>

    <output>
        <tripinfo-output value="F:\sumo_pro\traci_main\test1/tripinfo2_TEST.xml"/>
    </output>

    <time>
        <begin value="0"/>
        <end value="20000"/>
    </time>

    <processing>
        <lateral-resolution value="-1"/>
    </processing>

    <report>
        <verbose value="true"/>
        <duration-log.statistics value="true"/>
    </report>

    <traci_server>
        <remote-port value="52962"/>
    </traci_server>

    <gui_only>
        <gui-settings-file value="F:\sumo_pro\traci_main\test1/gui-settings2.cfg"/>
        <quit-on-end value="true"/>
        <start value="true"/>
    </gui_only>

</configuration>
-->

<tripinfos xmlns:xsi="http://www.w3.org/2001/XMLSchema-instance" xsi:noNamespaceSchemaLocation="http://sumo.dlr.de/xsd/tripinfo_file.xsd">
    <tripinfo id="xiaokeche_mainlane3_.0" depart="0.00" departLane="main0_3" departPos="4.10" departSpeed="0.00" departDelay="0.00" arrival="32.00" arrivalLane="main1_3" arrivalPos="300.00" arrivalSpeed="14.03" duration="32.00" routeLength="396.00" waitingTime="0.00" waitingCount="0" stopTime="0.00" timeLoss="4.06" rerouteNo="0" devices="tripinfo_xiaokeche_mainlane3_.0 routing_xiaokeche_mainlane3_.0" vType="xiaokeche" speedFactor="1.04" vaporized=""/>
    <tripinfo id="xiaokeche_mainlane2_.0" depart="0.00" departLane="main0_2" departPos="4.10" departSpeed="0.00" departDelay="0.00" arrival="33.00" arrivalLane="main1_2" arrivalPos="300.00" arrivalSpeed="13.11" duration="33.00" routeLength="396.00" waitingTime="0.00" waitingCount="0" stopTime="0.00" timeLoss="3.89" rerouteNo="0" devices="tripinfo_xiaokeche_mainlane2_.0 routing_xiaokeche_mainlane2_.0" vType="xiaokeche" speedFactor="1.01" vaporized=""/>
    <tripinfo id="xiaokeche_mainlane4_.0" depart="0.00" departLane="main0_4" departPos="4.10" departSpeed="0.00" departDelay="0.00" arrival="33.00" arrivalLane="main1_4" arrivalPos="300.00" arrivalSpeed="13.21" duration="33.00" routeLength="396.00" waitingTime="0.00" waitingCount="0" stopTime="0.00" timeLoss="4.57" rerouteNo="0" devices="tripinfo_xiaokeche_mainlane4_.0 routing_xiaokeche_mainlane4_.0" vType="xiaokeche" speedFactor="1.02" vaporized=""/>
    <tripinfo id="xiaokeche_mainlane1_.0" depart="0.00" departLane="main0_1" departPos="4.10" departSpeed="0.00" departDelay="0.00" arrival="34.00" arrivalLane="main1_0" arrivalPos="300.00" arrivalSpeed="12.66" duration="34.00" routeLength="396.00" waitingTime="0.00" waitingCount="0" stopTime="0.00" timeLoss="3.69" rerouteNo="0" devices="tripinfo_xiaokeche_mainlane1_.0 routing_xiaokeche_mainlane1_.0" vType="xiaokeche" speedFactor="0.97" vaporized=""/>
    <tripinfo id="xiaokeche_mainlane0_.0" depart="0.00" departLane="main0_0" departPos="4.10" departSpeed="0.00" departDelay="0.00" arrival="35.00" arrivalLane="main1_4" arrivalPos="300.00" arrivalSpeed="13.39" duration="35.00" routeLength="396.00" waitingTime="0.00" waitingCount="0" stopTime="0.00" timeLoss="6.75" rerouteNo="0" devices="tripinfo_xiaokeche_mainlane0_.0 routing_xiaokeche_mainlane0_.0" vType="xiaokeche" speedFactor="1.03" vaporized=""/>
    <tripinfo id="xiaokeche_mainlane1_.1" depart="3.00" departLane="main0_1" departPos="4.10" departSpeed="0.00" departDelay="0.60" arrival="38.00" arrivalLane="main1_0" arrivalPos="300.00" arrivalSpeed="13.28" duration="35.00" routeLength="396.00" waitingTime="0.00" waitingCount="0" stopTime="0.00" timeLoss="6.95" rerouteNo="0" devices="tripinfo_xiaokeche_mainlane1_.1 routing_xiaokeche_mainlane1_.1" vType="xiaokeche" speedFactor="1.02" vaporized=""/>
    <tripinfo id="xiaokeche_mainlane0_.1" depart="3.00" departLane="main0_0" departPos="4.10" departSpeed="0.00" departDelay="0.60" arrival="39.00" arrivalLane="main1_4" arrivalPos="300.00" arrivalSpeed="12.05" duration="36.00" routeLength="396.00" waitingTime="0.00" waitingCount="0" stopTime="0.00" timeLoss="4.43" rerouteNo="0" devices="tripinfo_xiaokeche_mainlane0_.1 routing_xiaokeche_mainlane0_.1" vType="xiaokeche" speedFactor="0.92" vaporized=""/>
    <tripinfo id="xiaokeche_mainlane3_.1" depart="3.00" departLane="main0_3" departPos="4.10" departSpeed="0.00" departDelay="0.60" arrival="39.00" arrivalLane="main1_3" arrivalPos="300.00" arrivalSpeed="13.31" duration="36.00" routeLength="396.00" waitingTime="0.00" waitingCount="0" stopTime="0.00" timeLoss="6.52" rerouteNo="0" devices="tripinfo_xiaokeche_mainlane3_.1 routing_xiaokeche_mainlane3_.1" vType="xiaokeche" speedFactor="0.97" vaporized=""/>
    <tripinfo id="xiaokeche_mainlane4_.1" depart="3.00" departLane="main0_4" departPos="4.10" departSpeed="0.00" departDelay="0.60" arrival="39.00" arrivalLane="main1_5" arrivalPos="300.00" arrivalSpeed="12.34" duration="36.00" routeLength="396.00" waitingTime="0.00" waitingCount="0" stopTime="0.00" timeLoss="4.59" rerouteNo="0" devices="tripinfo_xiaokeche_mainlane4_.1 routing_xiaokeche_mainlane4_.1" vType="xiaokeche" speedFactor="0.93" vaporized=""/>
    <tripinfo id="xiaokeche_mainlane2_.1" depart="3.00" departLane="main0_2" departPos="4.10" departSpeed="0.00" departDelay="0.60" arrival="40.00" arrivalLane="main1_1" arrivalPos="300.00" arrivalSpeed="13.04" duration="37.00" routeLength="396.00" waitingTime="0.00" waitingCount="0" stopTime="0.00" timeLoss="6.19" rerouteNo="0" devices="tripinfo_xiaokeche_mainlane2_.1 routing_xiaokeche_mainlane2_.1" vType="xiaokeche" speedFactor="0.94" vaporized=""/>
    <tripinfo id="xiaokeche_mainlane2_.2" depart="5.00" departLane="main0_2" departPos="4.10" departSpeed="0.00" departDelay="0.20" arrival="40.00" arrivalLane="main1_2" arrivalPos="300.00" arrivalSpeed="12.98" duration="35.00" routeLength="396.00" waitingTime="0.00" waitingCount="0" stopTime="0.00" timeLoss="6.58" rerouteNo="0" devices="tripinfo_xiaokeche_mainlane2_.2 routing_xiaokeche_mainlane2_.2" vType="xiaokeche" speedFactor="1.02" vaporized=""/>
    <tripinfo id="xiaokeche_mainlane4_.2" depart="6.00" departLane="main0_4" departPos="4.10" departSpeed="0.00" departDelay="1.20" arrival="40.00" arrivalLane="main1_5" arrivalPos="300.00" arrivalSpeed="13.38" duration="34.00" routeLength="396.00" waitingTime="0.00" waitingCount="0" stopTime="0.00" timeLoss="5.23" rerouteNo="0" devices="tripinfo_xiaokeche_mainlane4_.2 routing_xiaokeche_mainlane4_.2" vType="xiaokeche" speedFactor="1.00" vaporized=""/>
    <tripinfo id="xiaokeche_mainlane1_.2" depart="5.00" departLane="main0_1" departPos="4.10" departSpeed="0.00" departDelay="0.20" arrival="41.00" arrivalLane="main1_0" arrivalPos="300.00" arrivalSpeed="13.34" duration="36.00" routeLength="396.00" waitingTime="0.00" waitingCount="0" stopTime="0.00" timeLoss="7.48" rerouteNo="0" devices="tripinfo_xiaokeche_mainlane1_.2 routing_xiaokeche_mainlane1_.2" vType="xiaokeche" speedFactor="1.01" vaporized=""/>
    <tripinfo id="xiaokeche_mainlane3_.2" depart="6.00" departLane="main0_3" departPos="4.10" departSpeed="0.00" departDelay="1.20" arrival="41.00" arrivalLane="main1_3" arrivalPos="300.00" arrivalSpeed="14.66" duration="35.00" routeLength="396.00" waitingTime="0.00" waitingCount="0" stopTime="0.00" timeLoss="7.61" rerouteNo="0" devices="tripinfo_xiaokeche_mainlane3_.2 routing_xiaokeche_mainlane3_.2" vType="xiaokeche" speedFactor="1.06" vaporized=""/>
    <tripinfo id="xiaokeche_mainlane4_.3" depart="8.00" departLane="main0_4" departPos="4.10" departSpeed="0.00" departDelay="0.80" arrival="41.00" arrivalLane="main1_4" arrivalPos="300.00" arrivalSpeed="14.74" duration="33.00" routeLength="396.00" waitingTime="0.00" waitingCount="0" stopTime="0.00" timeLoss="5.64" rerouteNo="0" devices="tripinfo_xiaokeche_mainlane4_.3 routing_xiaokeche_mainlane4_.3" vType="xiaokeche" speedFactor="1.08" vaporized=""/>
    <tripinfo id="xiaokeche_mainlane0_.2" depart="6.00" departLane="main0_0" departPos="4.10" departSpeed="0.00" departDelay="1.20" arrival="43.00" arrivalLane="main1_4" arrivalPos="300.00" arrivalSpeed="14.06" duration="37.00" routeLength="396.00" waitingTime="1.00" waitingCount="1" stopTime="0.00" timeLoss="9.53" rerouteNo="0" devices="tripinfo_xiaokeche_mainlane0_.2 routing_xiaokeche_mainlane0_.2" vType="xiaokeche" speedFactor="1.05" vaporized=""/>
    <tripinfo id="xiaokeche_mainlane2_.3" depart="8.00" departLane="main0_2" departPos="4.10" departSpeed="0.00" departDelay="0.80" arrival="43.00" arrivalLane="main1_2" arrivalPos="300.00" arrivalSpeed="12.46" duration="35.00" routeLength="396.00" waitingTime="0.00" waitingCount="0" stopTime="0.00" timeLoss="5.22" rerouteNo="0" devices="tripinfo_xiaokeche_mainlane2_.3 routing_xiaokeche_mainlane2_.3" vType="xiaokeche" speedFactor="0.97" vaporized=""/>
    <tripinfo id="xiaokeche_mainlane3_.3" depart="9.00" departLane="main0_3" departPos="4.10" departSpeed="0.00" departDelay="1.80" arrival="43.00" arrivalLane="main1_3" arrivalPos="300.00" arrivalSpeed="12.33" duration="34.00" routeLength="396.00" waitingTime="0.00" waitingCount="0" stopTime="0.00" timeLoss="4.55" rerouteNo="0" devices="tripinfo_xiaokeche_mainlane3_.3 routing_xiaokeche_mainlane3_.3" vType="xiaokeche" speedFactor="0.97" vaporized=""/>
    <tripinfo id="xiaokeche_mainlane0_.3" depart="8.00" departLane="main0_0" departPos="4.10" departSpeed="0.00" departDelay="0.80" arrival="47.00" arrivalLane="main1_4" arrivalPos="300.00" arrivalSpeed="13.22" duration="39.00" routeLength="396.00" waitingTime="0.00" waitingCount="0" stopTime="0.00" timeLoss="9.13" rerouteNo="0" devices="tripinfo_xiaokeche_mainlane0_.3 routing_xiaokeche_mainlane0_.3" vType="xiaokeche" speedFactor="0.96" vaporized=""/>
    <tripinfo id="xiaokeche_mainlane4_.4" depart="11.00" departLane="main0_4" departPos="4.10" departSpeed="0.00" departDelay="1.40" arrival="47.00" arrivalLane="main1_5" arrivalPos="300.00" arrivalSpeed="12.21" duration="36.00" routeLength="396.00" waitingTime="0.00" waitingCount="0" stopTime="0.00" timeLoss="4.51" rerouteNo="0" devices="tripinfo_xiaokeche_mainlane4_.4 routing_xiaokeche_mainlane4_.4" vType="xiaokeche" speedFactor="0.91" vaporized=""/>
    <tripinfo id="xiaokeche_mainlane1_.3" depart="8.00" departLane="main0_1" departPos="4.10" departSpeed="0.00" departDelay="0.80" arrival="49.00" arrivalLane="main1_0" arrivalPos="300.00" arrivalSpeed="12.56" duration="41.00" routeLength="396.00" waitingTime="0.00" waitingCount="0" stopTime="0.00" timeLoss="10.02" rerouteNo="0" devices="tripinfo_xiaokeche_mainlane1_.3 routing_xiaokeche_mainlane1_.3" vType="xiaokeche" speedFactor="0.94" vaporized=""/>
    <tripinfo id="xiaokeche_mainlane3_.4" depart="12.00" departLane="main0_3" departPos="4.10" departSpeed="0.00" departDelay="2.40" arrival="49.00" arrivalLane="main1_2" arrivalPos="300.00" arrivalSpeed="11.91" duration="37.00" routeLength="396.00" waitingTime="0.00" waitingCount="0" stopTime="0.00" timeLoss="6.25" rerouteNo="0" devices="tripinfo_xiaokeche_mainlane3_.4 routing_xiaokeche_mainlane3_.4" vType="xiaokeche" speedFactor="0.94" vaporized=""/>
    <tripinfo id="xiaokeche_mainlane3_.5" depart="14.00" departLane="main0_3" departPos="4.10" departSpeed="0.00" departDelay="2.00" arrival="49.00" arrivalLane="main1_3" arrivalPos="300.00" arrivalSpeed="14.33" duration="35.00" routeLength="396.00" waitingTime="1.00" waitingCount="1" stopTime="0.00" timeLoss="7.85" rerouteNo="0" devices="tripinfo_xiaokeche_mainlane3_.5 routing_xiaokeche_mainlane3_.5" vType="xiaokeche" speedFactor="1.07" vaporized=""/>
    <tripinfo id="xiaokeche_mainlane4_.5" depart="14.00" departLane="main0_4" departPos="4.10" departSpeed="0.00" departDelay="2.00" arrival="49.00" arrivalLane="main1_5" arrivalPos="300.00" arrivalSpeed="12.64" duration="35.00" routeLength="396.00" waitingTime="0.00" waitingCount="0" stopTime="0.00" timeLoss="4.91" rerouteNo="0" devices="tripinfo_xiaokeche_mainlane4_.5 routing_xiaokeche_mainlane4_.5" vType="xiaokeche" speedFactor="0.97" vaporized=""/>
    <tripinfo id="xiaokeche_mainlane4_.6" depart="16.00" departLane="main0_4" departPos="4.10" departSpeed="0.00" departDelay="1.60" arrival="51.00" arrivalLane="main1_5" arrivalPos="300.00" arrivalSpeed="13.59" duration="35.00" routeLength="396.00" waitingTime="0.00" waitingCount="0" stopTime="0.00" timeLoss="5.54" rerouteNo="0" devices="tripinfo_xiaokeche_mainlane4_.6 routing_xiaokeche_mainlane4_.6" vType="xiaokeche" speedFactor="1.00" vaporized=""/>
    <tripinfo id="xiaokeche_mainlane2_.4" depart="14.00" departLane="main0_2" departPos="4.10" departSpeed="0.00" departDelay="4.40" arrival="52.00" arrivalLane="main1_5" arrivalPos="300.00" arrivalSpeed="13.55" duration="38.00" routeLength="396.00" waitingTime="0.00" waitingCount="0" stopTime="0.00" timeLoss="8.89" rerouteNo="0" devices="tripinfo_xiaokeche_mainlane2_.4 routing_xiaokeche_mainlane2_.4" vType="xiaokeche" speedFactor="0.99" vaporized=""/>
    <tripinfo id="xiaokeche_mainlane1_.4" depart="11.00" departLane="main0_1" departPos="4.10" departSpeed="0.00" departDelay="1.40" arrival="53.00" arrivalLane="main1_1" arrivalPos="300.00" arrivalSpeed="13.42" duration="42.00" routeLength="396.00" waitingTime="4.00" waitingCount="3" stopTime="0.00" timeLoss="12.98" rerouteNo="0" devices="tripinfo_xiaokeche_mainlane1_.4 routing_xiaokeche_mainlane1_.4" vType="xiaokeche" speedFactor="1.01" vaporized=""/>
    <tripinfo id="xiaokeche_mainlane0_.5" depart="15.00" departLane="main0_0" departPos="4.10" departSpeed="0.00" departDelay="3.00" arrival="53.00" arrivalLane="main1_4" arrivalPos="300.00" arrivalSpeed="12.59" duration="38.00" routeLength="396.00" waitingTime="0.00" waitingCount="0" stopTime="0.00" timeLoss="7.08" rerouteNo="0" devices="tripinfo_xiaokeche_mainlane0_.5 routing_xiaokeche_mainlane0_.5" vType="xiaokeche" speedFactor="0.94" vaporized=""/>
    <tripinfo id="xiaokeche_mainlane0_.4" depart="12.00" departLane="main0_0" departPos="4.10" departSpeed="0.00" departDelay="2.40" arrival="55.00" arrivalLane="main1_4" arrivalPos="300.00" arrivalSpeed="12.97" duration="43.00" routeLength="396.00" waitingTime="0.00" waitingCount="0" stopTime="0.00" timeLoss="14.02" rerouteNo="0" devices="tripinfo_xiaokeche_mainlane0_.4 routing_xiaokeche_mainlane0_.4" vType="xiaokeche" speedFactor="1.01" vaporized=""/>
    <tripinfo id="xiaokeche_mainlane4_.7" depart="20.00" departLane="main0_4" departPos="4.10" departSpeed="0.00" departDelay="3.20" arrival="55.00" arrivalLane="main1_5" arrivalPos="300.00" arrivalSpeed="12.85" duration="35.00" routeLength="396.00" waitingTime="0.00" waitingCount="0" stopTime="0.00" timeLoss="4.77" rerouteNo="0" devices="tripinfo_xiaokeche_mainlane4_.7 routing_xiaokeche_mainlane4_.7" vType="xiaokeche" speedFactor="0.95" vaporized=""/>
    <tripinfo id="xiaokeche_mainlane0_.7" depart="21.00" departLane="main0_0" departPos="4.10" departSpeed="0.00" departDelay="4.20" arrival="56.00" arrivalLane="main1_4" arrivalPos="300.00" arrivalSpeed="13.04" duration="35.00" routeLength="396.00" waitingTime="0.00" waitingCount="0" stopTime="0.00" timeLoss="6.66" rerouteNo="0" devices="tripinfo_xiaokeche_mainlane0_.7 routing_xiaokeche_mainlane0_.7" vType="xiaokeche" speedFactor="1.01" vaporized=""/>
    <tripinfo id="xiaokeche_mainlane1_.6" depart="24.00" departLane="main0_1" departPos="4.10" departSpeed="0.00" departDelay="9.60" arrival="57.00" arrivalLane="main1_0" arrivalPos="300.00" arrivalSpeed="14.88" duration="33.00" routeLength="396.00" waitingTime="0.00" waitingCount="0" stopTime="0.00" timeLoss="6.47" rerouteNo="0" devices="tripinfo_xiaokeche_mainlane1_.6 routing_xiaokeche_mainlane1_.6" vType="xiaokeche" speedFactor="1.08" vaporized=""/>
    <tripinfo id="xiaokeche_mainlane4_.8" depart="23.00" departLane="main0_4" departPos="4.10" departSpeed="0.00" departDelay="3.80" arrival="57.00" arrivalLane="main1_5" arrivalPos="300.00" arrivalSpeed="13.44" duration="34.00" routeLength="396.00" waitingTime="0.00" waitingCount="0" stopTime="0.00" timeLoss="5.43" rerouteNo="0" devices="tripinfo_xiaokeche_mainlane4_.8 routing_xiaokeche_mainlane4_.8" vType="xiaokeche" speedFactor="1.02" vaporized=""/>
    <tripinfo id="xiaokeche_mainlane3_.6" depart="17.00" departLane="main0_3" departPos="4.10" departSpeed="0.00" departDelay="2.60" arrival="58.00" arrivalLane="main1_5" arrivalPos="300.00" arrivalSpeed="14.53" duration="41.00" routeLength="396.00" waitingTime="1.00" waitingCount="1" stopTime="0.00" timeLoss="14.64" rerouteNo="0" devices="tripinfo_xiaokeche_mainlane3_.6 routing_xiaokeche_mainlane3_.6" vType="xiaokeche" speedFactor="1.09" vaporized=""/>
    <tripinfo id="xiaokeche_mainlane3_.7" depart="20.00" departLane="main0_3" departPos="4.10" departSpeed="0.00" departDelay="3.20" arrival="58.00" arrivalLane="main1_3" arrivalPos="300.00" arrivalSpeed="14.44" duration="38.00" routeLength="396.00" waitingTime="0.00" waitingCount="0" stopTime="0.00" timeLoss="10.09" rerouteNo="0" devices="tripinfo_xiaokeche_mainlane3_.7 routing_xiaokeche_mainlane3_.7" vType="xiaokeche" speedFactor="1.05" vaporized=""/>
    <tripinfo id="xiaokeche_mainlane0_.8" depart="24.00" departLane="main0_0" departPos="4.10" departSpeed="0.00" departDelay="4.80" arrival="58.00" arrivalLane="main1_4" arrivalPos="300.00" arrivalSpeed="13.39" duration="34.00" routeLength="396.00" waitingTime="0.00" waitingCount="0" stopTime="0.00" timeLoss="5.40" rerouteNo="0" devices="tripinfo_xiaokeche_mainlane0_.8 routing_xiaokeche_mainlane0_.8" vType="xiaokeche" speedFactor="1.02" vaporized=""/>
    <tripinfo id="xiaokeche_mainlane0_.6" depart="18.00" departLane="main0_0" departPos="4.10" departSpeed="0.00" departDelay="3.60" arrival="59.00" arrivalLane="main1_4" arrivalPos="300.00" arrivalSpeed="14.98" duration="41.00" routeLength="396.00" waitingTime="0.00" waitingCount="0" stopTime="0.00" timeLoss="14.82" rerouteNo="0" devices="tripinfo_xiaokeche_mainlane0_.6 routing_xiaokeche_mainlane0_.6" vType="xiaokeche" speedFactor="1.09" vaporized=""/>
</tripinfos>
